 Gaussian 16, Revision B.01,
 Gaussian 16:  ES64L-G16RevB.01 20-Dec-2017

 -----------------------------------------------
 # b3lyp/6-31+g(d) nmr pop=nbo6read iop(10/46=1)
 -----------------------------------------------

 ------------------------------
 NICSinput//Created_by_py.Aroma
 ------------------------------
 Symbolic Z-matrix:
 Charge =  0 Multiplicity = 1

                          Input orientation:
 ---------------------------------------------------------------------
 Center     Atomic      Atomic             Coordinates (Angstroms)
 Number     Number       Type             X           Y           Z
 ---------------------------------------------------------------------
      1          6           0       -1.339236   -0.395853    0.000005
      2          6           0       -0.326685   -1.357730    0.000069
      3          6           0        1.012421   -0.961878   -0.000055
      4          6           0        1.339202    0.395965    0.000008
      5          6           0        0.326798    1.357700    0.000062
      6          6           0       -1.012501    0.961798   -0.000058
      7          1           0       -2.381330   -0.704010   -0.000066
      8          1           0       -0.581086   -2.414245    0.000079
      9          1           0        1.800375   -1.710234   -0.000154
     10          1           0        2.381367    0.703858    0.000007
     11          1           0        0.580952    2.414267    0.000018
     12          1           0       -1.800276    1.710353   -0.000063
     13          0           0       -0.000006   -0.000010    0.000004
     14          0           0        0.000009   -0.000057    1.000004
     15          0           0       -0.000020    0.000036   -0.999996
 ---------------------------------------------------------------------

 SCF Done:  E(RB3LYP) =  -232.258899521     A.U. after   10 cycles

      1  C    Isotropic =    67.9707   Anisotropy =   166.5399

      2  C    Isotropic =    67.9835   Anisotropy =   166.5556

      3  C    Isotropic =    67.9569   Anisotropy =   166.5532

      4  C    Isotropic =    67.9716   Anisotropy =   166.5403

      5  C    Isotropic =    67.9844   Anisotropy =   166.5563

      6  C    Isotropic =    67.9569   Anisotropy =   166.5520

      7  H    Isotropic =    24.7904   Anisotropy =     4.7360

      8  H    Isotropic =    24.7900   Anisotropy =     4.7365

      9  H    Isotropic =    24.7911   Anisotropy =     4.7341

     10  H    Isotropic =    24.7905   Anisotropy =     4.7362

     11  H    Isotropic =    24.7902   Anisotropy =     4.7366

     12  H    Isotropic =    24.7910   Anisotropy =     4.7340

     13  Bq   Isotropic =     8.0159   Anisotropy =     7.7509

     14  Bq   Isotropic =    10.1475   Anisotropy =    27.9080

     15  Bq   Isotropic =    10.1481   Anisotropy =    27.9095

 Alpha  occ. eigenvalues --  -10.19808 -10.19781 -10.19781 -10.19725 -10.19725
 Alpha  occ. eigenvalues --  -10.19698  -0.85768  -0.75031  -0.75031  -0.60717
 Alpha  occ. eigenvalues --   -0.60717  -0.52796  -0.46736  -0.44901  -0.42680
 Alpha  occ. eigenvalues --   -0.42680  -0.36989  -0.34965  -0.34964  -0.25729
 Alpha  occ. eigenvalues --   -0.25729
 Alpha virt. eigenvalues --   -0.01398  -0.01397   0.00890   0.02623   0.02623
 Alpha virt. eigenvalues --    0.04608   0.04608   0.06662   0.07820   0.07934
 Alpha virt. eigenvalues --    0.09224   0.09225   0.09984   0.12745   0.14283

 Mulliken charges:
               1
     1  C   -0.177758
     2  C   -0.177750
     3  C   -0.177784
     4  C   -0.177749
     5  C   -0.177759
     6  C   -0.177778
     7  H    0.177765
     8  H    0.177760
     9  H    0.177763
    10  H    0.177765
    11  H    0.177759
    12  H    0.177764
    13  Bq   0.000000
    14  Bq   0.000000
    15  Bq   0.000000
 Sum of Mulliken charges =  -0.00000

 Dipole moment (field-independent basis, Debye):
    X=              0.0000    Y=             -0.0000    Z=             -0.0001  Tot=              0.0001
 Quadrupole moment (field-independent basis, Debye-Ang):
   XX=            -32.2062   YY=            -32.2072   ZZ=            -40.3952
   XY=             -0.0001   XZ=             -0.0000   YZ=              0.0001

 Summary of Natural Population Analysis:

                                     Natural Population
             Natural    ---------------------------------------------
  Atom No    Charge        Core      Valence    Rydberg      Total
 --------------------------------------------------------------------
    C  1   -0.24324      2.00000     4.22731    0.01594     6.24324
    C  2   -0.24325      2.00000     4.22732    0.01594     6.24325
    C  3   -0.24325      2.00000     4.22731    0.01594     6.24325
    C  4   -0.24324      2.00000     4.22731    0.01594     6.24324
    C  5   -0.24325      2.00000     4.22732    0.01594     6.24325
    C  6   -0.24325      2.00000     4.22731    0.01594     6.24325
    H  7    0.24325      0.00000     0.75594    0.00081     0.75675
    H  8    0.24325      0.00000     0.75594    0.00081     0.75675
    H  9    0.24325      0.00000     0.75594    0.00081     0.75675
    H 10    0.24325      0.00000     0.75594    0.00081     0.75675
    H 11    0.24325      0.00000     0.75594    0.00081     0.75675
    H 12    0.24325      0.00000     0.75594    0.00081     0.75675
   gh 13    0.00000      0.00000     0.00000    0.00000     0.00000
   gh 14    0.00000      0.00000     0.00000    0.00000     0.00000
   gh 15    0.00000      0.00000     0.00000    0.00000     0.00000
 ====================================================================
 * Total *  0.00000     11.99998    29.89952    0.10050    42.00000

 Normal termination of Gaussian 16 at Thu Sep  2 16:33:27 2021.
