 Gaussian 16, Revision B.01,
 Gaussian 16:  EM64M-G16RevB.01 20-Dec-2017

 ---------------------------
 #p opt freq rb3lyp/6-31g(d)
 ---------------------------

 -------------------
 Title Card Required
 -------------------
 Symbolic Z-matrix:
 Charge =  0 Multiplicity = 1

 SCF Done:  E(RB3LYP) =  -232.248035803     A.U. after   10 cycles
 SCF Done:  E(RB3LYP) =  -232.248650991     A.U. after    9 cycles
 Optimization completed.
    -- Stationary point found.
 Normal termination of Gaussian 16 at Mon Jun 29 21:50:56 2020.

 --------------------------------------------------------------------
 #P Geom=AllCheck Guess=TCheck SCRF=Check GenChk RB3LYP/6-31G(d) Freq
 --------------------------------------------------------------------

 Structure from the checkpoint file:  "ben_b3lyp.chk"
 -------------------
 Title Card Required
 -------------------
 Charge =  0 Multiplicity = 1

                         Standard orientation:
 ---------------------------------------------------------------------
 Center     Atomic      Atomic             Coordinates (Angstroms)
 Number     Number       Type             X           Y           Z
 ---------------------------------------------------------------------
      1          6           0       -1.339236   -0.395853    0.000005
      2          6           0       -0.326685   -1.357730    0.000069
      3          6           0        1.012421   -0.961878   -0.000055
      4          6           0        1.339202    0.395965    0.000008
      5          6           0        0.326798    1.357700    0.000062
      6          6           0       -1.012501    0.961798   -0.000058
      7          1           0       -2.381330   -0.704010   -0.000066
      8          1           0       -0.581086   -2.414245    0.000079
      9          1           0        1.800375   -1.710234   -0.000154
     10          1           0        2.381367    0.703858    0.000007
     11          1           0        0.580952    2.414267    0.000018
     12          1           0       -1.800276    1.710353   -0.000063
 ---------------------------------------------------------------------

 SCF Done:  E(RB3LYP) =  -232.248650991     A.U. after    1 cycles

 The electronic state is 1-A.
 Alpha  occ. eigenvalues --  -10.18766 -10.18740 -10.18740 -10.18685 -10.18685
 Alpha  occ. eigenvalues --  -10.18658  -0.84638  -0.73987  -0.73987  -0.59754
 Alpha  occ. eigenvalues --   -0.59754  -0.51863  -0.45935  -0.43813  -0.41730
 Alpha  occ. eigenvalues --   -0.41729  -0.35943  -0.34030  -0.34028  -0.24630
 Alpha  occ. eigenvalues --   -0.24630
 Alpha virt. eigenvalues --    0.00365   0.00366   0.09084   0.14477   0.14477
 Alpha virt. eigenvalues --    0.16401   0.18193   0.18194   0.19038   0.30273
 Alpha virt. eigenvalues --    0.30274   0.31920   0.31921   0.47486   0.52735

 Mulliken charges:
               1
     1  C   -0.128529
     2  C   -0.128520
     3  C   -0.128539
     4  C   -0.128525
     5  C   -0.128521
     6  C   -0.128538
     7  H    0.128532
     8  H    0.128524
     9  H    0.128530
    10  H    0.128532
    11  H    0.128524
    12  H    0.128530
 Sum of Mulliken charges =  -0.00000

 Dipole moment (field-independent basis, Debye):
    X=              0.0000    Y=             -0.0000    Z=             -0.0001  Tot=              0.0001
 Quadrupole moment (field-independent basis, Debye-Ang):
   XX=            -31.4017   YY=            -31.4026   ZZ=            -38.5973
   XY=             -0.0001   XZ=             -0.0000   YZ=              0.0001

  Exact polarizability:  71.261   0.000  71.260  -0.000   0.000  20.960
 Approx polarizability: 118.364  -0.000 118.360   0.000  -0.000  31.035

                      1                      2                      3
                      A                      A                      A
 Frequencies --    414.5825               414.7010               621.7834
 Red. masses --      2.9565                 2.9565                 6.0785
 Frc consts  --      0.2994                 0.2996                 1.3846
 IR Inten    --      0.0000                 0.0000                 0.0000

                      4                      5                      6
                      A                      A                      A
 Frequencies --    621.7994               692.8982               717.6622
 Red. masses --      6.0783                 1.0848                 3.9089
 Frc consts  --      1.3846                 0.3069                 1.1862
 IR Inten    --      0.0000                77.5490                 0.0000

                      7                      8                      9
                      A                      A                      A
 Frequencies --    863.5246               863.5671               968.3057
 Red. masses --      1.2476                 1.2476                 1.3563
 Frc consts  --      0.5481                 0.5482                 0.7492
 IR Inten    --      0.0000                 0.0000                 0.0000

                     10                     11                     12
                      A                      A                      A
 Frequencies --    968.3881              1010.0805              1019.9555
 Red. masses --      1.3562                 1.2199                 6.5542
 Frc consts  --      0.7493                 0.7333                 4.0173
 IR Inten    --      0.0000                 0.0000                 0.0000

                     13                     14                     15
                      A                      A                      A
 Frequencies --   1020.8698              1068.9899              1069.0749
 Red. masses --      6.0329                 1.6985                 1.6984
 Frc consts  --      3.7044                 1.1436                 1.1437
 IR Inten    --      0.0000                 3.2828                 3.2828

                     16                     17                     18
                      A                      A                      A
 Frequencies --   1185.2170              1207.5141              1207.5332
 Red. masses --      1.0788                 1.1369                 1.1368
 Frc consts  --      0.8928                 0.9767                 0.9767
 IR Inten    --      0.0000                 0.0000                 0.0000

                     19                     20                     21
                      A                      A                      A
 Frequencies --   1357.0708              1386.6886              1531.3108
 Red. masses --      6.7302                 1.2476                 2.0189
 Frc consts  --      7.3027                 1.4135                 2.7893
 IR Inten    --      0.0000                 0.0000                 6.5352

                     22                     23                     24
                      A                      A                      A
 Frequencies --   1531.3826              1656.3192              1656.4226
 Red. masses --      2.0191                 5.3341                 5.3353
 Frc consts  --      2.7899                 8.6218                 8.6248
 IR Inten    --      6.5370                 0.0000                 0.0000

                     25                     26                     27
                      A                      A                      A
 Frequencies --   3177.3641              3186.9430              3187.0507
 Red. masses --      1.0834                 1.0875                 1.0875
 Frc consts  --      6.4444                 6.5076                 6.5081
 IR Inten    --      0.0005                 0.0001                 0.0001

                     28                     29                     30
                      A                      A                      A
 Frequencies --   3202.7101              3202.8179              3213.4107
 Red. masses --      1.0949                 1.0949                 1.0991
 Frc consts  --      6.6170                 6.6175                 6.6870
 IR Inten    --     51.8774                51.8492                 0.0004

 - Thermochemistry -
 -------------------
 Temperature   298.150 Kelvin.  Pressure   1.00000 Atm.
 Atom     1 has atomic number  6 and mass  12.00000

 Molecular mass:    78.04695 amu.
 Principal axes and moments of inertia in atomic units:
                           1         2         3
     Eigenvalues --   317.28797 317.29695 634.58492
           X            0.99939  -0.03502  -0.00000
           Y            0.03502   0.99939   0.00000
           Z            0.00000  -0.00000   1.00000
 This molecule is an asymmetric top.
 Rotational symmetry number  1.
 Rotational temperatures (Kelvin)      0.27298     0.27297     0.13649
 Rotational constants (GHZ):           5.68802     5.68786     2.84397
 Zero-point vibrational energy     264529.9 (Joules/Mol)
                                   63.22415 (Kcal/Mol)
 Warning -- explicit consideration of   2 degrees of freedom as
           vibrations may cause significant error
 Vibrational temperatures:    596.49   596.66   894.61   894.63   996.93
          (Kelvin)           1032.56  1242.42  1242.48  1393.18  1393.29
                             1453.28  1467.49  1468.80  1538.04  1538.16
                             1705.26  1737.34  1737.37  1952.52  1995.14
                             2203.21  2203.32  2383.07  2383.22  4571.52
                             4585.30  4585.46  4607.99  4608.14  4623.38

 Zero-point correction=                           0.100754 (Hartree/Particle)
 Thermal correction to Energy=                    0.105143
 Thermal correction to Enthalpy=                  0.106087
 Thermal correction to Gibbs Free Energy=         0.073292
 Sum of electronic and zero-point Energies=           -232.147897
 Sum of electronic and thermal Energies=              -232.143508
 Sum of electronic and thermal Enthalpies=            -232.142564
 Sum of electronic and thermal Free Energies=         -232.175359

                     E (Thermal)             CV                S
                      KCal/Mol        Cal/Mol-Kelvin    Cal/Mol-Kelvin
 Total                   65.978             17.139             69.024
 Electronic               0.000              0.000              0.000
 Translational            0.889              2.981             38.979
 Rotational               0.889              2.981             25.661
 Vibrational             64.201             11.178              4.385
 Vibration     1          0.778              1.439              0.911
 Vibration     2          0.778              1.438              0.910

 Optimization completed.
    -- Stationary point found.
 Normal termination of Gaussian 16 at Mon Jun 29 21:53:57 2020.
