                         Program Version 4.2.1 -  RELEASE  -
|  1> !B3LYP EPR-II Autoaux rijcosx pal8
|  2> * xyzfile 0 2 tempo_opt.xyz
|  3> %eprnmr
|  4> 	gtensor 1
|  5> 	Nuclei = all N {aiso, adip, aorb, fgrad, rho}
|  6> 	Nuclei = all C {aiso, adip, aorb, fgrad, rho}
|  7> end
|  8>
|  9>                          ****END OF INPUT****

CARTESIAN COORDINATES (ANGSTROEM)
---------------------------------
  C      0.068981    3.575849    1.255502
  C     -1.573337    1.709258    1.254760
  C     -1.313138    3.136025    1.723984
  C     -1.513817    1.539663   -0.272747
  C      0.246527    3.536145   -0.271819
  H      0.816682    2.920793    1.714382
  H     -0.826192    1.050933    1.710361
  H     -2.084887    3.816057    1.351350
  H      0.293291    4.590155    1.595713
  H     -2.549506    1.355625    1.596551
  H     -1.367430    3.183458    2.814854
  N     -0.316575    2.258264   -0.827619
  O     -0.031972    2.008049   -2.047049
  C     -1.355861    0.053902   -0.615227
  H     -0.422673   -0.340085   -0.209161
  H     -1.352099   -0.099961   -1.692439
  H     -2.185084   -0.507432   -0.179751
  C     -2.786352    2.082415   -0.949123
  H     -2.667624    2.055441   -2.032445
  H     -3.007892    3.106763   -0.651023
  H     -3.642135    1.460277   -0.678814
  C     -0.449452    4.731552   -0.948525
  H      0.067925    5.656843   -0.686356
  H     -1.490831    4.834343   -0.642825
  H     -0.417377    4.612844   -2.031776
  C      1.740633    3.562991   -0.612370
  H      2.245666    2.687147   -0.201937
  H      2.194731    4.457058   -0.180107
  H      1.895532    3.574456   -1.689300

 Total Charge           Charge          ....    0
 Multiplicity           Mult            ....    2
 Number of Electrons    NEL             ....   87
 Basis Dimension        Dim             ....  313

ORBITAL ENERGIES
----------------
                 SPIN UP ORBITALS
  NO   OCC          E(Eh)            E(eV)
   0   1.0000     -19.129595      -520.5427
   1   1.0000     -14.406926      -392.0324
   2   1.0000     -10.233126      -278.4575
   3   1.0000     -10.233085      -278.4564
   4   1.0000     -10.187966      -277.2286
   5   1.0000     -10.186685      -277.1938
   6   1.0000     -10.186578      -277.1909
   7   1.0000     -10.173014      -276.8218
   8   1.0000     -10.172737      -276.8143
   9   1.0000     -10.167157      -276.6624
  10   1.0000     -10.166975      -276.6575
  11   1.0000      -1.085262       -29.5315
  12   1.0000      -0.862497       -23.4697
  13   1.0000      -0.815993       -22.2043
  14   1.0000      -0.767868       -20.8947
  15   1.0000      -0.713349       -19.4112
  16   1.0000      -0.692135       -18.8339
  17   1.0000      -0.684792       -18.6341
  18   1.0000      -0.680259       -18.5108
  19   1.0000      -0.603531       -16.4229
  20   1.0000      -0.592389       -16.1197
  21   1.0000      -0.515429       -14.0255
  22   1.0000      -0.482958       -13.1420
  23   1.0000      -0.479378       -13.0445
  24   1.0000      -0.466985       -12.7073
  25   1.0000      -0.459588       -12.5060
  26   1.0000      -0.440377       -11.9833
  27   1.0000      -0.425803       -11.5867
  28   1.0000      -0.423814       -11.5326
  29   1.0000      -0.404673       -11.0117
  30   1.0000      -0.401428       -10.9234
  31   1.0000      -0.387643       -10.5483
  32   1.0000      -0.387503       -10.5445
  33   1.0000      -0.370506       -10.0820
  34   1.0000      -0.367314        -9.9951
  35   1.0000      -0.365633        -9.9494
  36   1.0000      -0.351757        -9.5718
  37   1.0000      -0.351219        -9.5572
  38   1.0000      -0.332656        -9.0520
  39   1.0000      -0.325558        -8.8589
  40   1.0000      -0.321455        -8.7472
  41   1.0000      -0.310827        -8.4580
  42   1.0000      -0.246791        -6.7155
  43   1.0000      -0.185263        -5.0413
  44   0.0000       0.008241         0.2242
  45   0.0000       0.026330         0.7165
  46   0.0000       0.033913         0.9228
  47   0.0000       0.038549         1.0490
  48   0.0000       0.061784         1.6812

                 SPIN DOWN ORBITALS
  NO   OCC          E(Eh)            E(eV)
   0   1.0000     -19.115831      -520.1682
   1   1.0000     -14.395896      -391.7322
   2   1.0000     -10.233502      -278.4678
   3   1.0000     -10.233461      -278.4666
   4   1.0000     -10.187980      -277.2290
   5   1.0000     -10.186653      -277.1929
   6   1.0000     -10.186547      -277.1900
   7   1.0000     -10.172466      -276.8069
   8   1.0000     -10.172189      -276.7993
   9   1.0000     -10.166951      -276.6568
  10   1.0000     -10.166768      -276.6518
  11   1.0000      -1.060413       -28.8553
  12   1.0000      -0.854492       -23.2519
  13   1.0000      -0.814942       -22.1757
  14   1.0000      -0.762763       -20.7558
  15   1.0000      -0.699032       -19.0216
  16   1.0000      -0.690552       -18.7909
  17   1.0000      -0.683869       -18.6090
  18   1.0000      -0.680003       -18.5038
  19   1.0000      -0.601398       -16.3649
  20   1.0000      -0.589328       -16.0364
  21   1.0000      -0.509719       -13.8702
  22   1.0000      -0.477377       -12.9901
  23   1.0000      -0.477012       -12.9802
  24   1.0000      -0.460417       -12.5286
  25   1.0000      -0.439917       -11.9708
  26   1.0000      -0.438481       -11.9317
  27   1.0000      -0.425395       -11.5756
  28   1.0000      -0.419573       -11.4172
  29   1.0000      -0.399782       -10.8786
  30   1.0000      -0.396523       -10.7899
  31   1.0000      -0.386681       -10.5221
  32   1.0000      -0.384685       -10.4678
  33   1.0000      -0.365890        -9.9564
  34   1.0000      -0.364537        -9.9196
  35   1.0000      -0.362040        -9.8516
  36   1.0000      -0.351500        -9.5648
  37   1.0000      -0.335548        -9.1307
  38   1.0000      -0.331430        -9.0187
  39   1.0000      -0.324496        -8.8300
  40   1.0000      -0.309934        -8.4337
  41   1.0000      -0.296035        -8.0555
  42   1.0000      -0.234631        -6.3846
  43   0.0000      -0.044016        -1.1977
  44   0.0000       0.008464         0.2303
  45   0.0000       0.026418         0.7189
  46   0.0000       0.034212         0.9310
  47   0.0000       0.039007         1.0614

MULLIKEN ATOMIC CHARGES AND SPIN POPULATIONS
--------------------------------------------
   0 C :   -0.270189    0.002637
   1 C :   -0.271705    0.002584
   2 C :   -0.356096   -0.003148
   3 C :    0.362122   -0.006089
   4 C :    0.362556   -0.006435
   5 H :    0.132677   -0.000165
   6 H :    0.132588   -0.000137
   7 H :    0.156110    0.000147
   8 H :    0.118856   -0.000729
   9 H :    0.118586   -0.000708
  10 H :    0.131013    0.000233
  11 N :    0.051682    0.455256
  12 O :   -0.390191    0.503511
  13 C :   -0.545870    0.000751
  14 H :    0.152571    0.000314
  15 H :    0.177264   -0.000435
  16 H :    0.136459   -0.001556
  17 C :   -0.510230    0.027312
  18 H :    0.172015   -0.001006
  19 H :    0.137076   -0.000709
  20 H :    0.143428    0.001782
  21 C :   -0.513035    0.027332
  22 H :    0.143358    0.001835
  23 H :    0.136365   -0.000742
  24 H :    0.173397   -0.000982
  25 C :   -0.543897    0.000829
  26 H :    0.151267    0.000320
  27 H :    0.135359   -0.001560
  28 H :    0.176461   -0.000441
Sum of atomic charges         :   -0.0000000

LOEWDIN ATOMIC CHARGES AND SPIN POPULATIONS
-------------------------------------------
   0 C :   -0.051765    0.001710
   1 C :   -0.051459    0.001738
   2 C :   -0.072438   -0.000097
   3 C :   -0.134699    0.007505
   4 C :   -0.134593    0.007495
   5 H :    0.050381    0.000001
   6 H :    0.050535    0.000010
   7 H :    0.042246    0.000064
   8 H :    0.048362   -0.000340
   9 H :    0.048119   -0.000335
  10 H :    0.041985    0.000320
  11 N :    0.075213    0.432253
  12 O :   -0.224978    0.494897
  13 C :   -0.046445    0.005982
  14 H :    0.040584   -0.000112
  15 H :    0.046754   -0.000133
  16 H :    0.038617   -0.000484
  17 C :   -0.042510    0.019528
  18 H :    0.047603    0.000216
  19 H :    0.032089    0.000034
  20 H :    0.040090    0.002358
  21 C :   -0.043000    0.019491
  22 H :    0.040314    0.002371
  23 H :    0.031903    0.000032
  24 H :    0.047697    0.000222
  25 C :   -0.045996    0.006006
  26 H :    0.040223   -0.000114
  27 H :    0.038509   -0.000483
  28 H :    0.046660   -0.000134

  Mayer bond orders larger than 0.100000
B(  0-C ,  2-C ) :   0.9858 B(  0-C ,  4-C ) :   0.9708 B(  0-C ,  5-H ) :   0.9741
B(  0-C ,  8-H ) :   0.9635 B(  1-C ,  2-C ) :   0.9848 B(  1-C ,  3-C ) :   0.9685
B(  1-C ,  6-H ) :   0.9752 B(  1-C ,  9-H ) :   0.9651 B(  2-C ,  7-H ) :   0.9668
B(  2-C , 10-H ) :   0.9672 B(  3-C , 11-N ) :   0.9583 B(  3-C , 13-C ) :   0.8895
B(  3-C , 17-C ) :   0.9082 B(  4-C , 11-N ) :   0.9572 B(  4-C , 21-C ) :   0.9081
B(  4-C , 25-C ) :   0.8858 B( 11-N , 12-O ) :   1.2485 B( 13-C , 14-H ) :   0.9757
B( 13-C , 15-H ) :   0.9651 B( 13-C , 16-H ) :   0.9722 B( 17-C , 18-H ) :   0.9714
B( 17-C , 19-H ) :   0.9736 B( 17-C , 20-H ) :   0.9662 B( 21-C , 22-H ) :   0.9679
B( 21-C , 23-H ) :   0.9734 B( 21-C , 24-H ) :   0.9711 B( 25-C , 26-H ) :   0.9782
B( 25-C , 27-H ) :   0.9726 B( 25-C , 28-H ) :   0.9656

FINAL SINGLE POINT ENERGY      -483.496933640345

DIPOLE MOMENT
-------------
                                X             Y             Z
Electronic contribution:      2.06762      -1.82640      -2.85492
Nuclear contribution   :     -2.47451       2.18491       3.95301
                        -----------------------------------------
Total Dipole Moment    :     -0.40689       0.35852       1.09810
                        -----------------------------------------
Magnitude (a.u.)       :      1.22471
Magnitude (Debye)      :      3.11296

Rotational constants in cm-1:     0.049404     0.035276     0.028377
Rotational constants in MHz :  1481.085690  1057.545261   850.726847

                             ****ORCA TERMINATED NORMALLY****
TOTAL RUN TIME: 0 days 0 hours 7 minutes 49 seconds 710 msec
