 Gaussian 16, Revision B.01,
 Gaussian 16:  ES64L-G16RevB.01 20-Dec-2017

 ---------------------------------------------
 # B3LYP/6-31+G* NMR pop=nbo6read IOp(10/46=1)
 ---------------------------------------------

 --------
 biphenyl
 --------
 Symbolic Z-matrix:
 Charge =  0 Multiplicity = 1

                          Input orientation:
 ---------------------------------------------------------------------
 Center     Atomic      Atomic             Coordinates (Angstroms)
 Number     Number       Type             X           Y           Z
 ---------------------------------------------------------------------
      1          1           0        1.909000   -0.935000    0.916000
      2          6           0        1.079000   -0.517000    1.452000
      3          6           0       -1.079000    0.517000    2.835000
      4          6           0        0.000000    0.000000    0.745000
      5          6           0        1.079000   -0.517000    2.835000
      6          6           0        0.000000    0.000000    3.531000
      7          6           0       -1.079000    0.517000    1.452000
      8          1           0        1.915000   -0.925000    3.367000
      9          1           0        0.000000    0.000000    4.603000
     10          1           0       -1.909000    0.935000    0.916000
     11          1           0       -1.915000    0.925000    3.367000
     12          6           0        0.000000    0.000000   -0.745000
     13          6           0        0.000000    0.000000   -3.531000
     14          6           0        1.079000    0.517000   -1.452000
     15          6           0       -1.079000   -0.517000   -1.452000
     16          6           0       -1.079000   -0.517000   -2.835000
     17          6           0        1.079000    0.517000   -2.835000
     18          1           0        1.909000    0.935000   -0.916000
     19          1           0       -1.909000   -0.935000   -0.916000
     20          1           0       -1.915000   -0.925000   -3.367000
     21          1           0        1.915000    0.925000   -3.367000
     22          1           0        0.000000    0.000000   -4.603000
     23          0           0        0.432106    0.901823    2.138333
     24          0           0       -0.432106   -0.901823    2.138333
     25          0           0        0.432106   -0.901823   -2.145000
     26          0           0       -0.432106    0.901823   -2.145000
     27          0           0        0.000000    0.000000    2.145000
 ---------------------------------------------------------------------

 SCF Done:  E(RB3LYP) =  -463.318927703     A.U. after   12 cycles

      1  H    Isotropic =    24.9975   Anisotropy =     8.3667

      2  C    Isotropic =    70.3583   Anisotropy =   153.8775

      3  C    Isotropic =    70.4697   Anisotropy =   165.8621

      4  C    Isotropic =    52.7380   Anisotropy =   179.0617

      5  C    Isotropic =    70.4697   Anisotropy =   165.8621

      6  C    Isotropic =    72.6356   Anisotropy =   165.8839

      7  C    Isotropic =    70.3583   Anisotropy =   153.8775

      8  H    Isotropic =    25.0128   Anisotropy =     4.8549

      9  H    Isotropic =    25.0683   Anisotropy =     4.3672

     10  H    Isotropic =    24.9975   Anisotropy =     8.3667

     11  H    Isotropic =    25.0128   Anisotropy =     4.8549

     12  C    Isotropic =    52.7380   Anisotropy =   179.0617

     13  C    Isotropic =    72.6356   Anisotropy =   165.8839

     14  C    Isotropic =    70.3583   Anisotropy =   153.8775

     15  C    Isotropic =    70.3583   Anisotropy =   153.8775

     16  C    Isotropic =    70.4697   Anisotropy =   165.8621

     17  C    Isotropic =    70.4697   Anisotropy =   165.8621

     18  H    Isotropic =    24.9975   Anisotropy =     8.3667

     19  H    Isotropic =    24.9975   Anisotropy =     8.3667

     20  H    Isotropic =    25.0128   Anisotropy =     4.8549

     21  H    Isotropic =    25.0128   Anisotropy =     4.8549

     22  H    Isotropic =    25.0683   Anisotropy =     4.3672

     23  Bq   Isotropic =     9.7140   Anisotropy =    27.2308

     24  Bq   Isotropic =     9.7140   Anisotropy =    27.2308

     25  Bq   Isotropic =     9.7150   Anisotropy =    27.2288

     26  Bq   Isotropic =     9.7150   Anisotropy =    27.2288

     27  Bq   Isotropic =     7.7397   Anisotropy =     6.5631

 Alpha  occ. eigenvalues --  -10.20188 -10.20159 -10.19333 -10.19333 -10.19317
 Alpha  occ. eigenvalues --  -10.19317 -10.19211 -10.19211 -10.19176 -10.19175
 Alpha  occ. eigenvalues --  -10.19173 -10.19172  -0.87904  -0.85758  -0.78497
 Alpha  occ. eigenvalues --   -0.75830  -0.75238  -0.72958  -0.63032  -0.62424
 Alpha  occ. eigenvalues --   -0.60291  -0.58560  -0.54066  -0.50959  -0.47459
 Alpha  occ. eigenvalues --   -0.46837  -0.45057  -0.44787  -0.43139  -0.42728
 Alpha  occ. eigenvalues --   -0.42629  -0.38114  -0.37407  -0.36784  -0.35559
 Alpha  occ. eigenvalues --   -0.34494  -0.33922  -0.27642  -0.26081  -0.25866
 Alpha  occ. eigenvalues --   -0.23770
 Alpha virt. eigenvalues --   -0.03007  -0.01616  -0.01022   0.00218   0.00894
 Alpha virt. eigenvalues --    0.01107   0.02241   0.03155   0.03174   0.04561
 Alpha virt. eigenvalues --    0.04596   0.05010   0.05683   0.05926   0.07182

 Mulliken charges:
               1
     1  H    0.181424
     2  C   -0.313707
     3  C   -0.264128
     4  C    0.408498
     5  C   -0.264128
     6  C   -0.146253
     7  C   -0.313707
     8  H    0.177415
     9  H    0.175746
    10  H    0.181424
    11  H    0.177415
    12  C    0.408498
    13  C   -0.146253
    14  C   -0.313707
    15  C   -0.313707
    16  C   -0.264128
    17  C   -0.264128
    18  H    0.181424
    19  H    0.181424
    20  H    0.177415
    21  H    0.177415
    22  H    0.175746
    23  Bq   0.000000
    24  Bq   0.000000
    25  Bq   0.000000
    26  Bq   0.000000
    27  Bq   0.000000
 Sum of Mulliken charges =  -0.00000

 Dipole moment (field-independent basis, Debye):
    X=              0.0000    Y=              0.0000    Z=              0.0000  Tot=              0.0000
 Quadrupole moment (field-independent basis, Debye-Ang):
   XX=            -65.4424   YY=            -74.5705   ZZ=            -63.0500
   XY=              0.0000   XZ=             -0.0000   YZ=              0.0000

 Summary of Natural Population Analysis:

                                     Natural Population
             Natural    ---------------------------------------------
  Atom No    Charge        Core      Valence    Rydberg      Total
 --------------------------------------------------------------------
    H  1    0.24306      0.00000     0.75598    0.00096     0.75694
    C  2   -0.22491      2.00000     4.21030    0.01462     6.22491
    C  3   -0.23333      2.00000     4.21744    0.01590     6.23333
    C  4   -0.05040      2.00000     4.03337    0.01704     6.05040
    C  5   -0.23333      2.00000     4.21744    0.01590     6.23333
    C  6   -0.24217      2.00000     4.22632    0.01585     6.24217
    C  7   -0.22491      2.00000     4.21030    0.01462     6.22491
    H  8    0.24110      0.00000     0.75799    0.00091     0.75890
    H  9    0.24075      0.00000     0.75844    0.00081     0.75925
    H 10    0.24306      0.00000     0.75598    0.00096     0.75694
    H 11    0.24110      0.00000     0.75799    0.00091     0.75890
    C 12   -0.05040      2.00000     4.03337    0.01704     6.05040
    C 13   -0.24217      2.00000     4.22632    0.01585     6.24217
    C 14   -0.22491      2.00000     4.21030    0.01462     6.22491
    C 15   -0.22491      2.00000     4.21030    0.01462     6.22491
    C 16   -0.23333      2.00000     4.21744    0.01590     6.23333
    C 17   -0.23333      2.00000     4.21744    0.01590     6.23333
    H 18    0.24306      0.00000     0.75598    0.00096     0.75694
    H 19    0.24306      0.00000     0.75598    0.00096     0.75694
    H 20    0.24110      0.00000     0.75799    0.00091     0.75890
    H 21    0.24110      0.00000     0.75799    0.00091     0.75890
    H 22    0.24075      0.00000     0.75844    0.00081     0.75925
   gh 23    0.00000      0.00000     0.00000    0.00000     0.00000
   gh 24    0.00000      0.00000     0.00000    0.00000     0.00000
   gh 25    0.00000      0.00000     0.00000    0.00000     0.00000
   gh 26    0.00000      0.00000     0.00000    0.00000     0.00000
   gh 27    0.00000      0.00000     0.00000    0.00000     0.00000
 ====================================================================
 * Total *  0.00000     23.99995    57.80305    0.19700    82.00000

 Normal termination of Gaussian 16 at Wed Apr 27 13:12:17 2022.
