 Gaussian 16, Revision B.01,
 Gaussian 16:  ES64L-G16RevB.01 20-Dec-2017

 ---------------------------
 #p opt freq rb3lyp/6-31g(d)
 ---------------------------

 -------------------
 Title Card Required
 -------------------
 Symbolic Z-matrix:
 Charge =  0 Multiplicity = 1

 SCF Done:  E(RB3LYP) =  -464.378768359     A.U. after   13 cycles
 SCF Done:  E(RB3LYP) =  -464.380790834     A.U. after   12 cycles
 SCF Done:  E(RB3LYP) =  -464.381133578     A.U. after   11 cycles
 SCF Done:  E(RB3LYP) =  -464.381148334     A.U. after    8 cycles
 Optimization completed.
    -- Stationary point found.
 Normal termination of Gaussian 16 at Fri May 28 14:27:33 2021.

 --------------------------------------------------------------------
 #P Geom=AllCheck Guess=TCheck SCRF=Check GenChk RB3LYP/6-31G(d) Freq
 --------------------------------------------------------------------

 Structure from the checkpoint file:  "6radialene.chk"
 -------------------
 Title Card Required
 -------------------
 Charge =  0 Multiplicity = 1

                         Standard orientation:
 ---------------------------------------------------------------------
 Center     Atomic      Atomic             Coordinates (Angstroms)
 Number     Number       Type             X           Y           Z
 ---------------------------------------------------------------------
      1          6           0        0.144087    2.773169   -0.000003
      2          1           0        0.278854    3.322874    0.926415
      3          1           0        0.278835    3.322845   -0.926443
      4          6           0       -0.144087    1.461479   -0.000003
      5          6           0       -0.288939    0.687036    1.265412
      6          6           0       -0.941420    1.182336    2.329620
      7          1           0       -1.069628    0.599299    3.236386
      8          1           0       -1.386617    2.172287    2.309928
      9          6           0        0.288939   -0.687036    1.265412
     10          6           0        0.941420   -1.182336    2.329620
     11          1           0        1.386617   -2.172287    2.309928
     12          1           0        1.069628   -0.599299    3.236386
     13          6           0        0.144087   -1.461479   -0.000003
     14          6           0       -0.144087   -2.773169   -0.000003
     15          1           0       -0.278835   -3.322845   -0.926443
     16          1           0       -0.278854   -3.322874    0.926415
     17          6           0        0.288952   -0.687028   -1.265408
     18          6           0        0.941434   -1.182323   -2.329611
     19          1           0        1.069615   -0.599288   -3.236381
     20          1           0        1.386629   -2.172276   -2.309950
     21          6           0       -0.288952    0.687028   -1.265408
     22          6           0       -0.941434    1.182323   -2.329611
     23          1           0       -1.386629    2.172276   -2.309950
     24          1           0       -1.069615    0.599288   -3.236381
 ---------------------------------------------------------------------

 SCF Done:  E(RB3LYP) =  -464.381148334     A.U. after    1 cycles

 The electronic state is 1-A.
 Alpha  occ. eigenvalues --  -10.20498 -10.20486 -10.20485 -10.20457 -10.20457
 Alpha  occ. eigenvalues --  -10.20442 -10.18328 -10.18328 -10.18328 -10.18328
 Alpha  occ. eigenvalues --  -10.18327 -10.18327  -0.86671  -0.80429  -0.80429
 Alpha  occ. eigenvalues --   -0.73080  -0.73080  -0.69872  -0.66578  -0.60175
 Alpha  occ. eigenvalues --   -0.60174  -0.53884  -0.53883  -0.50601  -0.46828
 Alpha  occ. eigenvalues --   -0.46727  -0.44648  -0.44648  -0.42016  -0.42016
 Alpha  occ. eigenvalues --   -0.40311  -0.40311  -0.39638  -0.36663  -0.35300
 Alpha  occ. eigenvalues --   -0.35300  -0.33750  -0.28651  -0.28651  -0.23572
 Alpha  occ. eigenvalues --   -0.23571  -0.21733
 Alpha virt. eigenvalues --   -0.05716  -0.00508  -0.00508   0.05566   0.05567
 Alpha virt. eigenvalues --    0.08975   0.12555   0.12985   0.12986   0.14650
 Alpha virt. eigenvalues --    0.14651   0.17334   0.17335   0.17929   0.18191

 Mulliken charges:
               1
     1  C   -0.394327
     2  H    0.147146
     3  H    0.147143
     4  C    0.100050
     5  C    0.100011
     6  C   -0.394313
     7  H    0.147149
     8  H    0.147147
     9  C    0.100011
    10  C   -0.394313
    11  H    0.147147
    12  H    0.147149
    13  C    0.100050
    14  C   -0.394327
    15  H    0.147143
    16  H    0.147146
    17  C    0.100015
    18  C   -0.394315
    19  H    0.147147
    20  H    0.147148
    21  C    0.100015
    22  C   -0.394315
    23  H    0.147148
    24  H    0.147147
 Sum of Mulliken charges =   0.00000

 Dipole moment (field-independent basis, Debye):
    X=             -0.0000    Y=              0.0000    Z=             -0.0000  Tot=              0.0000
 Quadrupole moment (field-independent basis, Debye-Ang):
   XX=            -74.5343   YY=            -65.5863   ZZ=            -65.2074
   XY=             -1.8813   XZ=             -0.0000   YZ=             -0.0000

  Exact polarizability:  73.992 -15.595 148.208  -0.000   0.000 151.350
 Approx polarizability: 122.538 -20.676 220.930  -0.000  -0.000 225.093

                      1                      2                      3
                      B                      A                      A
 Frequencies --     76.0207                76.0234               126.6143
 Red. masses --      3.6048                 3.6043                 3.5769
 Frc consts  --      0.0123                 0.0123                 0.0338
 IR Inten    --      0.1003                 0.0997                 0.0000

                      4                      5                      6
                      B                      B                      A
 Frequencies --    185.6039               272.5387               272.6212
 Red. masses --      3.6361                 4.0274                 4.0272
 Frc consts  --      0.0738                 0.1763                 0.1763
 IR Inten    --      4.4773                 0.0000                 0.0000

                      7                      8                      9
                      A                      B                      A
 Frequencies --    322.4574               322.6775               331.3116
 Red. masses --      2.5720                 2.5720                 2.4586
 Frc consts  --      0.1576                 0.1578                 0.1590
 IR Inten    --      0.0000                 0.0000                 0.0725

                     10                     11                     12
                      B                      A                      B
 Frequencies --    332.3099               332.3746               523.4806
 Red. masses --      2.7498                 2.7397                 5.5765
 Frc consts  --      0.1789                 0.1783                 0.9004
 IR Inten    --      2.3872                 2.3109                 0.0000

                     13                     14                     15
                      A                      B                      A
 Frequencies --    523.5268               553.1657               577.9578
 Red. masses --      5.5760                 1.9594                 5.5541
 Frc consts  --      0.9004                 0.3533                 1.0931
 IR Inten    --      0.0000                 0.0000                 0.0000

                     16                     17                     18
                      B                      A                      B
 Frequencies --    578.6004               578.7381               704.0467
 Red. masses --      1.9575                 1.9603                 1.0614
 Frc consts  --      0.3861                 0.3869                 0.3100
 IR Inten    --      1.2405                 1.2475                 0.0000

                     19                     20                     21
                      B                      A                      A
 Frequencies --    722.9783               736.8027               766.2361
 Red. masses --      5.6477                 1.0189                 1.1001
 Frc consts  --      1.7393                 0.3259                 0.3805
 IR Inten    --     10.1319                 0.0003                 0.0000

                     22                     23                     24
                      B                      B                      A
 Frequencies --    766.6173               790.5898               790.7618
 Red. masses --      1.1001                 1.6260                 1.6241
 Frc consts  --      0.3809                 0.5988                 0.5983
 IR Inten    --      0.0000                14.3060                14.3140

                     25                     26                     27
                      A                      A                      B
 Frequencies --    797.2712               835.9028               835.9221
 Red. masses --      4.6889                 1.9035                 1.9040
 Frc consts  --      1.7560                 0.7836                 0.7839
 IR Inten    --      0.0000                 0.0045                 0.0039

                     28                     29                     30
                      B                      A                      A
 Frequencies --    920.9489               921.1536               921.3332
 Red. masses --      1.3632                 1.3630                 1.4028
 Frc consts  --      0.6812                 0.6814                 0.7016
 IR Inten    --      0.0001                 0.0007                 7.2092

                     31                     32                     33
                      B                      B                      A
 Frequencies --    921.5376               925.7357               926.0664
 Red. masses --      1.4020                 1.3669                 1.4930
 Frc consts  --      0.7015                 0.6902                 0.7544
 IR Inten    --      7.4528               213.1977                 0.0000

                     34                     35                     36
                      A                      B                      A
 Frequencies --    950.6025               950.6844               978.7147
 Red. masses --      1.5755                 1.5754                 1.4763
 Frc consts  --      0.8388                 0.8389                 0.8332
 IR Inten    --      0.0000                 0.0000                 0.0000

                     37                     38                     39
                      B                      A                      B
 Frequencies --   1140.7765              1196.3230              1196.3450
 Red. masses --      1.7813                 2.2207                 2.2218
 Frc consts  --      1.3658                 1.8726                 1.8736
 IR Inten    --      0.0000                18.4995                18.5340

                     40                     41                     42
                      B                      A                      A
 Frequencies --   1274.2163              1274.2301              1320.4400
 Red. masses --      3.0995                 3.1008                 5.5245
 Frc consts  --      2.9650                 2.9663                 5.6752
 IR Inten    --      0.0000                 0.0000                 0.0000

                     43                     44                     45
                      B                      B                      A
 Frequencies --   1437.5114              1459.6844              1459.7712
 Red. masses --      1.1967                 1.3208                 1.3209
 Frc consts  --      1.4570                 1.6581                 1.6584
 IR Inten    --      1.1055                 0.0000                 0.0000

                     46                     47                     48
                      A                      B                      A
 Frequencies --   1468.8263              1468.9368              1473.2064
 Red. masses --      1.2509                 1.2512                 1.2154
 Frc consts  --      1.5900                 1.5906                 1.5542
 IR Inten    --     24.7831                24.7728                 0.0000

                     49                     50                     51
                      A                      A                      B
 Frequencies --   1670.3758              1670.7623              1670.8356
 Red. masses --      5.0215                 4.9044                 4.8997
 Frc consts  --      8.2550                 8.0661                 8.0591
 IR Inten    --      0.0061                 9.0281                 9.0412

                     52                     53                     54
                      B                      A                      B
 Frequencies --   1693.2115              1693.2610              1719.8630
 Red. masses --      4.9959                 4.9948                 5.1706
 Frc consts  --      8.4390                 8.4376                 9.0111
 IR Inten    --      0.0000                 0.0000                10.0423

                     55                     56                     57
                      B                      B                      A
 Frequencies --   3172.8223              3173.1651              3173.2215
 Red. masses --      1.0598                 1.0589                 1.0589
 Frc consts  --      6.2859                 6.2821                 6.2823
 IR Inten    --      5.7658                 0.0002                 0.0000

                     58                     59                     60
                      A                      B                      A
 Frequencies --   3174.9792              3175.0438              3176.6163
 Red. masses --      1.0579                 1.0579                 1.0576
 Frc consts  --      6.2832                 6.2835                 6.2877
 IR Inten    --     11.3490                11.3637                 0.0000

                     61                     62                     63
                      B                      B                      A
 Frequencies --   3254.4564              3255.7240              3255.7792
 Red. masses --      1.1170                 1.1166                 1.1166
 Frc consts  --      6.9707                 6.9734                 6.9736
 IR Inten    --      0.0000                23.7965                23.8073

                     64                     65                     66
                      A                      B                      A
 Frequencies --   3257.4512              3257.5131              3258.5095
 Red. masses --      1.1167                 1.1167                 1.1167
 Frc consts  --      6.9813                 6.9815                 6.9858
 IR Inten    --      0.0000                 0.0000                 0.0056

 - Thermochemistry -
 -------------------
 Temperature   298.150 Kelvin.  Pressure   1.00000 Atm.
 Atom     1 has atomic number  6 and mass  12.00000

 Molecular mass:   156.09390 amu.
 Principal axes and moments of inertia in atomic units:
                           1         2         3
     Eigenvalues --  1609.789021609.812942889.41929
           X           -0.19760   0.00000   0.98028
           Y            0.98028   0.00000   0.19760
           Z            0.00000   1.00000   0.00000
 This molecule is an asymmetric top.
 Rotational symmetry number  2.
 Warning -- assumption of classical behavior for rotation
           may cause significant error
 Rotational temperatures (Kelvin)      0.05380     0.05380     0.02998
 Rotational constants (GHZ):           1.12110     1.12109     0.62460
 Zero-point vibrational energy     520517.8 (Joules/Mol)
                                  124.40675 (Kcal/Mol)
 Warning -- explicit consideration of  17 degrees of freedom as
           vibrations may cause significant error
 Vibrational temperatures:    109.38   109.38   182.17   267.04   392.12
          (Kelvin)            392.24   463.94   464.26   476.68   478.12
                              478.21   753.17   753.24   795.88   831.55
                              832.48   832.68  1012.97  1040.20  1060.09
                             1102.44  1102.99  1137.48  1137.73  1147.10
                             1202.68  1202.71  1325.04  1325.33  1325.59
                             1325.89  1331.93  1332.40  1367.71  1367.82
                             1408.15  1641.32  1721.24  1721.27  1833.31
                             1833.33  1899.82  2068.26  2100.16  2100.29
                             2113.31  2113.47  2119.62  2403.30  2403.85
                             2403.96  2436.15  2436.22  2474.50  4564.98
                             4565.48  4565.56  4568.09  4568.18  4570.44
                             4682.44  4684.26  4684.34  4686.75  4686.83
                             4688.27

 Zero-point correction=                           0.198255 (Hartree/Particle)
 Thermal correction to Energy=                    0.209314
 Thermal correction to Enthalpy=                  0.210258
 Thermal correction to Gibbs Free Energy=         0.162852
 Sum of electronic and zero-point Energies=           -464.182894
 Sum of electronic and thermal Energies=              -464.171834
 Sum of electronic and thermal Enthalpies=            -464.170890
 Sum of electronic and thermal Free Energies=         -464.218297

                     E (Thermal)             CV                S
                      KCal/Mol        Cal/Mol-Kelvin    Cal/Mol-Kelvin
 Total                  131.346             44.898             99.775
 Electronic               0.000              0.000              0.000
 Translational            0.889              2.981             41.045
 Rotational               0.889              2.981             29.017
 Vibrational            129.569             38.936             29.713
 Vibration     1          0.599              1.965              3.991
 Vibration     2          0.599              1.965              3.991
 Vibration     3          0.611              1.927              2.997
 Vibration     4          0.632              1.860              2.271
 Vibration     5          0.676              1.724              1.580
 Vibration     6          0.676              1.724              1.580
 Vibration     7          0.707              1.630              1.298
 Vibration     8          0.708              1.630              1.296
 Vibration     9          0.714              1.613              1.254
 Vibration    10          0.714              1.611              1.249
 Vibration    11          0.714              1.611              1.249
 Vibration    12          0.878              1.198              0.602
 Vibration    13          0.878              1.198              0.602
 Vibration    14          0.909              1.133              0.538
 Vibration    15          0.934              1.079              0.489
 Vibration    16          0.935              1.078              0.488
 Vibration    17          0.935              1.077              0.488

 Optimization completed.
    -- Stationary point found.
 Normal termination of Gaussian 16 at Fri May 28 14:28:45 2021.
