 Gaussian 16, Revision B.01,

 ---------------
 #p uhf/6-31g(d)
 ---------------

 -------------------
 Title Card Required
 -------------------
 Symbolic Z-matrix:
 Charge =  0 Multiplicity = 1

 SCF Done:  E(UHF) =  -193.753486775     A.U. after   14 cycles

 The electronic state is 1-A.
 Alpha  occ. eigenvalues --  -11.23857 -11.22230 -11.22229 -11.22146 -11.22100
 Alpha  occ. eigenvalues --   -1.10835  -0.96871  -0.92982  -0.75292  -0.74153
 Alpha  occ. eigenvalues --   -0.65598  -0.61343  -0.55644  -0.50367  -0.50130
 Alpha  occ. eigenvalues --   -0.49421  -0.48852  -0.47378  -0.16854
 Alpha virt. eigenvalues --    0.02441   0.24314   0.28231   0.29493   0.30635
 Alpha virt. eigenvalues --    0.31877   0.32301   0.32683   0.36107   0.38094
 Alpha virt. eigenvalues --    0.38153   0.46516   0.46757   0.58092   0.76147

  Beta  occ. eigenvalues --  -11.23857 -11.22230 -11.22229 -11.22146 -11.22100
  Beta  occ. eigenvalues --   -1.10835  -0.96871  -0.92982  -0.75292  -0.74153
  Beta  occ. eigenvalues --   -0.65598  -0.61343  -0.55644  -0.50367  -0.50130
  Beta  occ. eigenvalues --   -0.49421  -0.48852  -0.47378  -0.16854
  Beta virt. eigenvalues --    0.02441   0.24314   0.28231   0.29493   0.30635
  Beta virt. eigenvalues --    0.31877   0.32301   0.32683   0.36107   0.38094
  Beta virt. eigenvalues --    0.38153   0.46516   0.46757   0.58092   0.76147

 Normal termination of Gaussian 16 at Wed Jun  2 22:12:47 2021.
 Gaussian 16:  EM64M-G16RevB.01 20-Dec-2017

 -------------------------------------------------------
 #p casscf(2,2)/6-31g(d) guess=read pop=no geom=allcheck
 -------------------------------------------------------

 Structure from the checkpoint file:  "drch_2_2.chk"
 -------------------
 Title Card Required
 -------------------
 Charge =  0 Multiplicity = 1

                         Standard orientation:
 ---------------------------------------------------------------------
 Center     Atomic      Atomic             Coordinates (Angstroms)
 Number     Number       Type             X           Y           Z
 ---------------------------------------------------------------------
      1          6           0        1.024873   -0.772021    0.091024
      2          6           0        1.024867    0.772028   -0.091022
      3          6           0       -0.408440    1.174719    0.078831
      4          6           0       -1.343203   -0.000005    0.000004
      5          6           0       -0.408429   -1.174721   -0.078841
      6          1           0        1.697517   -1.278689   -0.615685
      7          1           0        1.398695   -1.037631    1.096417
      8          1           0        1.398699    1.037646   -1.096409
      9          1           0        1.697500    1.278701    0.615696
     10          1           0       -2.022861   -0.053958    0.873123
     11          1           0       -2.022885    0.053942   -0.873094
     12          1           0       -0.742325   -2.206654   -0.119410
     13          1           0       -0.742344    2.206649    0.119391
 ---------------------------------------------------------------------

 Mulliken charges:
               1
     1  C   -0.325216
     2  C   -0.325214
     3  C   -0.241334
     4  C   -0.400453
     5  C   -0.241337
     6  H    0.177704
     7  H    0.161619
     8  H    0.161620
     9  H    0.177705
    10  H    0.244950
    11  H    0.244948
    12  H    0.182503
    13  H    0.182505
 Sum of Mulliken charges =   0.00000

 Dipole moment (field-independent basis, Debye):
    X=             -0.6389    Y=              0.0001    Z=              0.0000  Tot=              0.6389
 Quadrupole moment (field-independent basis, Debye-Ang):
   XX=            -28.7226   YY=            -32.7149   ZZ=            -33.3632
   XY=              0.0000   XZ=             -0.0001   YZ=             -0.1412

 Normal termination of Gaussian 16 at Wed Jun  2 22:12:55 2021.
