 Gaussian 16, Revision B.01,

 -------------
 #p rhf/sto-3g
 -------------

 -------------------
 Title Card Required
 -------------------
 Symbolic Z-matrix:
 Charge =  0 Multiplicity = 1

 SCF Done:  E(RHF) =  -191.404713460     A.U. after   13 cycles

 The electronic state is 1-A.
 Alpha  occ. eigenvalues --  -11.04574 -11.03165 -11.03132 -10.96541 -10.96521
 Alpha  occ. eigenvalues --   -1.05187  -0.92126  -0.87380  -0.70590  -0.69499
 Alpha  occ. eigenvalues --   -0.60835  -0.57793  -0.52285  -0.45968  -0.44645
 Alpha  occ. eigenvalues --   -0.44322  -0.43246  -0.42434  -0.08052
 Alpha virt. eigenvalues --    0.12110   0.59793   0.63651   0.63857   0.64341
 Alpha virt. eigenvalues --    0.69654   0.70011   0.71704   0.77648   0.77828
 Alpha virt. eigenvalues --    0.80896   0.83436   0.90477   0.92675

 Normal termination of Gaussian 16 at Wed Jun  2 22:25:18 2021.

 -----------------------------------------------------
 #p casscf(2,2)/sto-3g guess=read pop=no geom=allcheck
 -----------------------------------------------------

 Structure from the checkpoint file:  "drch_6_2.chk"
 -------------------
 Title Card Required
 -------------------
 Charge =  0 Multiplicity = 1

 Normal termination of Gaussian 16 at Wed Jun  2 22:25:24 2021.

 ----------------------------------------------------
 #p casscf(2,2)/4-31g guess=read pop=no geom=allcheck
 ----------------------------------------------------

 Structure from the checkpoint file:  "drch_6_3.chk"
 -------------------
 Title Card Required
 -------------------
 Charge =  0 Multiplicity = 1

 Normal termination of Gaussian 16 at Wed Jun  2 22:25:31 2021.
 Gaussian 16:  EM64M-G16RevB.01 20-Dec-2017

 -------------------------------------------------------
 #p casscf(2,2)/6-31g(d) guess=read pop=no geom=allcheck
 -------------------------------------------------------

 Structure from the checkpoint file:  "drch_6_4.chk"
 -------------------
 Title Card Required
 -------------------
 Charge =  0 Multiplicity = 1

                         Standard orientation:
 ---------------------------------------------------------------------
 Center     Atomic      Atomic             Coordinates (Angstroms)
 Number     Number       Type             X           Y           Z
 ---------------------------------------------------------------------
      1          6           0        1.024873   -0.772021    0.091024
      2          6           0        1.024867    0.772028   -0.091022
      3          6           0       -0.408440    1.174719    0.078831
      4          6           0       -1.343203   -0.000005    0.000004
      5          6           0       -0.408429   -1.174721   -0.078841
      6          1           0        1.697517   -1.278689   -0.615685
      7          1           0        1.398695   -1.037631    1.096417
      8          1           0        1.398699    1.037646   -1.096409
      9          1           0        1.697500    1.278701    0.615696
     10          1           0       -2.022861   -0.053958    0.873123
     11          1           0       -2.022885    0.053942   -0.873094
     12          1           0       -0.742325   -2.206654   -0.119410
     13          1           0       -0.742344    2.206649    0.119391
 ---------------------------------------------------------------------

 Mulliken charges:
               1
     1  C   -0.330432
     2  C   -0.330433
     3  C   -0.182497
     4  C   -0.321045
     5  C   -0.182499
     6  H    0.167483
     7  H    0.164603
     8  H    0.164603
     9  H    0.167482
    10  H    0.162609
    11  H    0.162610
    12  H    0.178758
    13  H    0.178758
 Sum of Mulliken charges =  -0.00000

 Dipole moment (field-independent basis, Debye):
    X=              0.0800    Y=             -0.0000    Z=              0.0000  Tot=              0.0800
 Quadrupole moment (field-independent basis, Debye-Ang):
   XX=            -31.6382   YY=            -31.3017   ZZ=            -32.8299
   XY=             -0.0000   XZ=             -0.0000   YZ=             -0.0568

 Normal termination of Gaussian 16 at Wed Jun  2 22:25:44 2021.
