 Gaussian 16, Revision B.01,

 -------------------------
 #p uhf/6-31g(d) guess=mix
 -------------------------

 -------------------
 Title Card Required
 -------------------
 Symbolic Z-matrix:
 Charge =  0 Multiplicity = 1

 SCF Done:  E(UHF) =  -193.910648589     A.U. after   15 cycles

 The electronic state is 1-A.
 Alpha  occ. eigenvalues --  -11.22383 -11.22372 -11.22268 -11.21993 -11.19789
 Alpha  occ. eigenvalues --   -1.11179  -0.96550  -0.92880  -0.76489  -0.72438
 Alpha  occ. eigenvalues --   -0.65641  -0.62099  -0.55368  -0.50341  -0.50070
 Alpha  occ. eigenvalues --   -0.49567  -0.48369  -0.47548  -0.32090
 Alpha virt. eigenvalues --    0.16571   0.24530   0.29132   0.29647   0.29951
 Alpha virt. eigenvalues --    0.31720   0.32769   0.33786   0.36351   0.37997
 Alpha virt. eigenvalues --    0.38064   0.46268   0.47589   0.58220   0.75858

  Beta  occ. eigenvalues --  -11.22383 -11.22372 -11.22268 -11.21993 -11.19789
  Beta  occ. eigenvalues --   -1.11179  -0.96550  -0.92880  -0.76489  -0.72438
  Beta  occ. eigenvalues --   -0.65641  -0.62099  -0.55368  -0.50341  -0.50070
  Beta  occ. eigenvalues --   -0.49567  -0.48369  -0.47548  -0.32090
  Beta virt. eigenvalues --    0.16571   0.24530   0.29132   0.29647   0.29951
  Beta virt. eigenvalues --    0.31720   0.32769   0.33786   0.36351   0.37997
  Beta virt. eigenvalues --    0.38064   0.46269   0.47589   0.58220   0.75857

 Mulliken charges and spin densities:
               1          2
     1  C   -0.331848  -0.193492
     2  C   -0.331847   0.193492
     3  C   -0.176923  -1.237991
     4  C   -0.326647   0.000001
     5  C   -0.176923   1.237991
     6  H    0.167422   0.037825
     7  H    0.164681   0.064931
     8  H    0.164681  -0.064930
     9  H    0.167422  -0.037826
    10  H    0.164648   0.006667
    11  H    0.164649  -0.006668
    12  H    0.175342  -0.094379
    13  H    0.175342   0.094379
 Sum of Mulliken charges =  -0.00000   0.00000

 Dipole moment (field-independent basis, Debye):
    X=              0.0629    Y=             -0.0000    Z=              0.0000  Tot=              0.0629
 Quadrupole moment (field-independent basis, Debye-Ang):
   XX=            -31.5692   YY=            -31.3686   ZZ=            -32.7886
   XY=             -0.0000   XZ=              0.0000   YZ=             -0.0563

 Normal termination of Gaussian 16 at Wed Jun  2 22:17:14 2021.
 Gaussian 16:  EM64M-G16RevB.01 20-Dec-2017

 -------------------------------------------------------
 #p casscf(2,2)/6-31g(d) guess=read pop=no geom=allcheck
 -------------------------------------------------------

 Structure from the checkpoint file:  "drch_4_2.chk"
 -------------------
 Title Card Required
 -------------------
 Charge =  0 Multiplicity = 1

                         Standard orientation:
 ---------------------------------------------------------------------
 Center     Atomic      Atomic             Coordinates (Angstroms)
 Number     Number       Type             X           Y           Z
 ---------------------------------------------------------------------
      1          6           0        1.024873   -0.772021    0.091024
      2          6           0        1.024867    0.772028   -0.091022
      3          6           0       -0.408440    1.174719    0.078831
      4          6           0       -1.343203   -0.000005    0.000004
      5          6           0       -0.408429   -1.174721   -0.078841
      6          1           0        1.697517   -1.278689   -0.615685
      7          1           0        1.398695   -1.037631    1.096417
      8          1           0        1.398699    1.037646   -1.096409
      9          1           0        1.697500    1.278701    0.615696
     10          1           0       -2.022861   -0.053958    0.873123
     11          1           0       -2.022885    0.053942   -0.873094
     12          1           0       -0.742325   -2.206654   -0.119410
     13          1           0       -0.742344    2.206649    0.119391
 ---------------------------------------------------------------------

 Error termination via Lnk1e in /Applications/g16/l510.exe at Wed Jun  2 22:17:41 2021.
