 Gaussian 16, Revision B.01,
 Gaussian 16:  ES64L-G16RevB.01 20-Dec-2017

 ----------------------------
 #p opt freq rwb97xd/6-31g(d)
 ----------------------------

 -------------------
 Title Card Required
 -------------------
 Symbolic Z-matrix:
 Charge =  0 Multiplicity = 1

 SCF Done:  E(RwB97XD) =  -424.989102518     A.U. after   18 cycles
 SCF Done:  E(RwB97XD) =  -424.998401738     A.U. after   17 cycles
 SCF Done:  E(RwB97XD) =  -425.000812099     A.U. after   17 cycles
 SCF Done:  E(RwB97XD) =  -425.001574057     A.U. after   16 cycles
 SCF Done:  E(RwB97XD) =  -425.001816462     A.U. after   12 cycles
 SCF Done:  E(RwB97XD) =  -425.001850319     A.U. after   11 cycles
 SCF Done:  E(RwB97XD) =  -425.001852786     A.U. after   10 cycles
 Optimization completed.
    -- Stationary point found.

 1\1\GINC-RHEL-HPC\FOpt\RwB97XD\6-31G(d)\C11H10\WANGZHE\28-May-2021\0\\
 #p opt freq rwb97xd/6-31g(d)\\Title Card Required\\0,1\C,0.5586708453,
 3.749116072,0.7713132529\H,0.6406998094,4.7750081224,1.126070458\C,0.0
 604958328,3.6112382663,-0.525292858\H,-0.1892938783,4.5384087172,-1.03
 51322774\C,-0.1583256854,2.4437768015,-1.2506685536\H,-0.5577269914,2.
 5778145581,-2.2555820268\C,0.0611321872,1.1240783844,-0.8738362825\C,-
 0.1832795095,-0.0056535487,-1.6592488746\H,-0.5774744098,0.0054210608,
 -2.6679635846\C,0.1686452872,-1.1399025687,-0.9167373702\H,0.087948757

 Normal termination of Gaussian 16 at Fri May 28 11:32:22 2021.

 ---------------------------------------------------------------------
 #P Geom=AllCheck Guess=TCheck SCRF=Check GenChk RwB97XD/6-31G(d) Freq
 ---------------------------------------------------------------------

 Structure from the checkpoint file:  "methylazulene.chk"
 -------------------
 Title Card Required
 -------------------
 Charge =  0 Multiplicity = 1

                         Standard orientation:
 ---------------------------------------------------------------------
 Center     Atomic      Atomic             Coordinates (Angstroms)
 Number     Number       Type             X           Y           Z
 ---------------------------------------------------------------------
      1          6           0       -2.681223   -0.695936    0.000026
      2          1           0       -3.700245   -1.078860    0.000044
      3          6           0       -2.573890    0.695773    0.000118
      4          1           0       -3.514548    1.240878    0.000195
      5          6           0       -1.421876    1.476723    0.000117
      6          1           0       -1.579954    2.554847    0.000135
      7          6           0       -0.091255    1.075207    0.000022
      8          6           0        1.021543    1.920539   -0.000066
      9          1           0        0.986520    3.003032   -0.000113
     10          6           0        2.175110    1.126197   -0.000164
     11          1           0        3.192497    1.504996   -0.000257
     12          6           0        1.842302   -0.233664    0.000077
     13          6           0        0.436710   -0.323263   -0.000152
     14          6           0       -1.685544   -1.668846   -0.000093
     15          1           0       -2.032353   -2.699281   -0.000099
     16          6           0       -0.300280   -1.497213   -0.000180
     17          1           0        0.283921   -2.417073   -0.000201
     18          6           0        2.805710   -1.383036    0.000219
     19          1           0        2.681208   -2.021294    0.883616
     20          1           0        2.681231   -2.021450   -0.883065
     21          1           0        3.837881   -1.020675    0.000200
 ---------------------------------------------------------------------

 SCF Done:  E(RwB97XD) =  -425.001852786     A.U. after    1 cycles

 The electronic state is 1-A.
 Alpha  occ. eigenvalues --  -10.31965 -10.31961 -10.31833 -10.30712 -10.30695
 Alpha  occ. eigenvalues --  -10.30237 -10.30033 -10.28976 -10.28834 -10.28622
 Alpha  occ. eigenvalues --  -10.27775  -0.97326  -0.92180  -0.88621  -0.83947
 Alpha  occ. eigenvalues --   -0.82505  -0.76781  -0.73544  -0.69725  -0.63580
 Alpha  occ. eigenvalues --   -0.62459  -0.59660  -0.57019  -0.53940  -0.53222
 Alpha  occ. eigenvalues --   -0.50163  -0.49389  -0.47838  -0.46333  -0.46166
 Alpha  occ. eigenvalues --   -0.44827  -0.44019  -0.42455  -0.40735  -0.40319
 Alpha  occ. eigenvalues --   -0.37533  -0.29482  -0.25042
 Alpha virt. eigenvalues --   -0.00225   0.02846   0.16124   0.16866   0.19133
 Alpha virt. eigenvalues --    0.20756   0.21453   0.22521   0.23349   0.24626
 Alpha virt. eigenvalues --    0.24811   0.26811   0.28010   0.28585   0.28740

 Mulliken charges:
               1
     1  C   -0.134130
     2  H    0.170104
     3  C   -0.186826
     4  H    0.165871
     5  C   -0.186386
     6  H    0.173027
     7  C    0.090254
     8  C   -0.231945
     9  H    0.158415
    10  C   -0.220523
    11  H    0.158285
    12  C    0.078528
    13  C    0.052609
    14  C   -0.183503
    15  H    0.165162
    16  C   -0.192275
    17  H    0.169415
    18  C   -0.573494
    19  H    0.175520
    20  H    0.175518
    21  H    0.176373
 Sum of Mulliken charges =  -0.00000

 Dipole moment (field-independent basis, Debye):
    X=             -0.8718    Y=             -0.5764    Z=              0.0000  Tot=              1.0451
 Quadrupole moment (field-independent basis, Debye-Ang):
   XX=            -55.8192   YY=            -56.7144   ZZ=            -68.8052
   XY=             -0.6178   XZ=             -0.0004   YZ=             -0.0000

  Exact polarizability: 185.403  12.319 133.141  -0.003   0.001  42.518
 Approx polarizability: 224.569  23.652 166.561  -0.005   0.001  54.312

                      1                      2                      3
                      A                      A                      A
 Frequencies --     95.0494               117.2025               171.5922
 Red. masses --      1.0592                 3.1464                 3.8234
 Frc consts  --      0.0056                 0.0255                 0.0663
 IR Inten    --      0.1051                 0.5055                 1.2542

                      4                      5                      6
                      A                      A                      A
 Frequencies --    231.9752               261.3201               325.5865
 Red. masses --      3.1792                 3.2907                 3.1666
 Frc consts  --      0.1008                 0.1324                 0.1978
 IR Inten    --      0.3476                 2.8520                 4.4181

                      7                      8                      9
                      A                      A                      A
 Frequencies --    401.4251               421.2489               444.9774
 Red. masses --      4.9475                 5.2471                 3.2537
 Frc consts  --      0.4697                 0.5486                 0.3796
 IR Inten    --      0.4486                 1.7358                 0.2336

                     10                     11                     12
                      A                      A                      A
 Frequencies --    482.2734               591.1758               625.5324
 Red. masses --      4.7090                 2.5382                 3.3793
 Frc consts  --      0.6453                 0.5227                 0.7791
 IR Inten    --      5.2731                 5.5323                 2.0424

                     13                     14                     15
                      A                      A                      A
 Frequencies --    648.4667               699.8002               736.2943
 Red. masses --      4.3919                 5.2095                 2.4706
 Frc consts  --      1.0881                 1.5031                 0.7891
 IR Inten    --      0.4728                 0.4625                 1.1761

                     16                     17                     18
                      A                      A                      A
 Frequencies --    739.1408               766.0905               802.1237
 Red. masses --      5.6374                 1.4054                 1.3719
 Frc consts  --      1.8146                 0.4860                 0.5201
 IR Inten    --      4.1693                29.0188                53.6347

                     19                     20                     21
                      A                      A                      A
 Frequencies --    885.9654               896.6172               937.0122
 Red. masses --      1.3782                 5.0926                 1.3652
 Frc consts  --      0.6374                 2.4122                 0.7062
 IR Inten    --      2.8650                 8.7035                 2.1309

                     22                     23                     24
                      A                      A                      A
 Frequencies --    955.4099               985.5296               999.3477
 Red. masses --      3.0151                 3.0239                 1.3806
 Frc consts  --      1.6216                 1.7304                 0.8124
 IR Inten    --     11.5028                 1.9044                 5.3090

                     25                     26                     27
                      A                      A                      A
 Frequencies --   1013.9207              1014.7798              1029.0688
 Red. masses --      2.5850                 1.3640                 1.3013
 Frc consts  --      1.5658                 0.8276                 0.8119
 IR Inten    --      8.0978                 0.0980                 0.0048

                     28                     29                     30
                      A                      A                      A
 Frequencies --   1077.5082              1078.0475              1092.4945
 Red. masses --      2.0688                 1.4806                 1.5510
 Frc consts  --      1.4152                 1.0139                 1.0907
 IR Inten    --      0.6739                 0.9811                 3.4512

                     31                     32                     33
                      A                      A                      A
 Frequencies --   1195.6134              1249.8578              1275.3898
 Red. masses --      1.7308                 1.4934                 1.2987
 Frc consts  --      1.4578                 1.3745                 1.2447
 IR Inten    --      0.6037                 2.1590                 0.0609

                     34                     35                     36
                      A                      A                      A
 Frequencies --   1341.0715              1353.3371              1380.0207
 Red. masses --      1.4261                 1.3565                 2.4214
 Frc consts  --      1.5112                 1.4638                 2.7170
 IR Inten    --      1.6783                 5.2610                 4.0101

                     37                     38                     39
                      A                      A                      A
 Frequencies --   1447.3258              1459.0524              1486.2057
 Red. masses --      1.2621                 2.0040                 2.3968
 Frc consts  --      1.5577                 2.5135                 3.1192
 IR Inten    --      0.5751                58.0564                24.1860

                     40                     41                     42
                      A                      A                      A
 Frequencies --   1500.6795              1522.3077              1528.2704
 Red. masses --      2.3228                 1.0428                 2.5483
 Frc consts  --      3.0820                 1.4239                 3.5068
 IR Inten    --     26.1438                 7.3692                 8.3166

                     43                     44                     45
                      A                      A                      A
 Frequencies --   1543.4350              1606.5816              1622.7017
 Red. masses --      1.2962                 5.8370                 3.3099
 Frc consts  --      1.8193                 8.8765                 5.1351
 IR Inten    --     28.8884                13.3694                 4.2007

                     46                     47                     48
                      A                      A                      A
 Frequencies --   1692.6333              1694.1543              3055.1642
 Red. masses --      4.9789                 7.2662                 1.0380
 Frc consts  --      8.4044                12.2875                 5.7086
 IR Inten    --     13.5688                81.8984                47.9380

                     49                     50                     51
                      A                      A                      A
 Frequencies --   3114.0376              3149.5436              3175.9219
 Red. masses --      1.1015                 1.1002                 1.0845
 Frc consts  --      6.2936                 6.4303                 6.4452
 IR Inten    --     23.2526                15.3519                 1.7411

                     52                     53                     54
                      A                      A                      A
 Frequencies --   3178.4520              3185.1729              3206.2471
 Red. masses --      1.0866                 1.0887                 1.0914
 Frc consts  --      6.4676                 6.5076                 6.6103
 IR Inten    --     12.6418                 8.9458                35.0957

                     55                     56                     57
                      A                      A                      A
 Frequencies --   3214.7522              3233.6308              3263.6833
 Red. masses --      1.0937                 1.0914                 1.0986
 Frc consts  --      6.6598                 6.7239                 6.8948
 IR Inten    --     28.7743                18.4964                12.6391

 - Thermochemistry -
 -------------------
 Temperature   298.150 Kelvin.  Pressure   1.00000 Atm.
 Atom     1 has atomic number  6 and mass  12.00000

 Molecular mass:   142.07825 amu.
 Principal axes and moments of inertia in atomic units:
                           1         2         3
     Eigenvalues --   860.152231811.797812660.71694
           X            0.99969  -0.02478   0.00000
           Y            0.02478   0.99969  -0.00000
           Z           -0.00000   0.00000   1.00000
 This molecule is an asymmetric top.
 Rotational symmetry number  1.
 Warning -- assumption of classical behavior for rotation
           may cause significant error
 Rotational temperatures (Kelvin)      0.10070     0.04781     0.03255
 Rotational constants (GHZ):           2.09816     0.99611     0.67829
 Zero-point vibrational energy     461771.8 (Joules/Mol)
                                  110.36611 (Kcal/Mol)
 Warning -- explicit consideration of  11 degrees of freedom as
           vibrations may cause significant error
 Vibrational temperatures:    136.75   168.63   246.88   333.76   375.98
          (Kelvin)            468.45   577.56   606.08   640.22   693.88
                              850.57   900.00   933.00  1006.86  1059.36
                             1063.46  1102.23  1154.08  1274.71  1290.03
                             1348.15  1374.62  1417.96  1437.84  1458.81
                             1460.04  1480.60  1550.29  1551.07  1571.86
                             1720.22  1798.27  1835.00  1929.50  1947.15
                             1985.54  2082.38  2099.25  2138.32  2159.14
                             2190.26  2198.84  2220.66  2311.51  2334.71
                             2435.32  2437.51  4395.70  4480.41  4531.49
                             4569.44  4573.08  4582.75  4613.07  4625.31
                             4652.47  4695.71

 Zero-point correction=                           0.175880 (Hartree/Particle)
 Thermal correction to Energy=                    0.184739
 Thermal correction to Enthalpy=                  0.185683
 Thermal correction to Gibbs Free Energy=         0.142054
 Sum of electronic and zero-point Energies=           -424.825973
 Sum of electronic and thermal Energies=              -424.817114
 Sum of electronic and thermal Enthalpies=            -424.816170
 Sum of electronic and thermal Free Energies=         -424.859799

                     E (Thermal)             CV                S
                      KCal/Mol        Cal/Mol-Kelvin    Cal/Mol-Kelvin
 Total                  115.925             35.349             91.825
 Electronic               0.000              0.000              0.000
 Translational            0.889              2.981             40.765
 Rotational               0.889              2.981             29.807
 Vibrational            114.148             29.387             21.254
 Vibration     1          0.603              1.953              3.553
 Vibration     2          0.608              1.935              3.146
 Vibration     3          0.626              1.877              2.418
 Vibration     4          0.653              1.792              1.864
 Vibration     5          0.669              1.744              1.653
 Vibration     6          0.710              1.624              1.282
 Vibration     7          0.767              1.467              0.957
 Vibration     8          0.784              1.424              0.888
 Vibration     9          0.804              1.372              0.811
 Vibration    10          0.839              1.289              0.704
 Vibration    11          0.949              1.051              0.465

 Optimization completed.
    -- Stationary point found.

 1\1\GINC-RHEL-HPC\Freq\RwB97XD\6-31G(d)\C11H10\WANGZHE\28-May-2021\0\\
 #P Geom=AllCheck Guess=TCheck SCRF=Check GenChk RwB97XD/6-31G(d) Freq\
 \Title Card Required\\0,1\C,0.5586708453,3.749116072,0.7713132529\H,0.
 6406998094,4.7750081224,1.126070458\C,0.0604958328,3.6112382663,-0.525
 292858\H,-0.1892938783,4.5384087172,-1.0351322774\C,-0.1583256854,2.44
 37768015,-1.2506685536\H,-0.5577269914,2.5778145581,-2.2555820268\C,0.
 0611321872,1.1240783844,-0.8738362825\C,-0.1832795095,-0.0056535487,-1
 .6592488746\H,-0.5774744098,0.0054210608,-2.6679635846\C,0.1686452872,

 Normal termination of Gaussian 16 at Fri May 28 11:34:08 2021.
