 Gaussian 16, Revision B.01,
 Gaussian 16:  ES64L-G16RevB.01 20-Dec-2017

 --------------------------
 # opt freq b3lyp/6-31+g(d)
 --------------------------

 -----
 title
 -----
 Symbolic Z-matrix:
 Charge =  0 Multiplicity = 1

 SCF Done:  E(RB3LYP) =  -385.811316663     A.U. after   12 cycles
 SCF Done:  E(RB3LYP) =  -385.882536564     A.U. after   11 cycles
 SCF Done:  E(RB3LYP) =  -385.906691593     A.U. after   12 cycles
 SCF Done:  E(RB3LYP) =  -385.906888290     A.U. after   10 cycles
 SCF Done:  E(RB3LYP) =  -385.906903962     A.U. after    9 cycles
 SCF Done:  E(RB3LYP) =  -385.906905160     A.U. after    9 cycles
 Optimization completed.
    -- Stationary point found.
 Normal termination of Gaussian 16 at Tue Oct  3 11:08:47 2023.

 ---------------------------------------------------------------------
 #N Geom=AllCheck Guess=TCheck SCRF=Check GenChk RB3LYP/6-31+G(d) Freq
 ---------------------------------------------------------------------

 Structure from the checkpoint file:  "/home/wangzhe/g16/Scratch/Gau-28868.chk"
 -----
 title
 -----
 Charge =  0 Multiplicity = 1

                         Standard orientation:
 ---------------------------------------------------------------------
 Center     Atomic      Atomic             Coordinates (Angstroms)
 Number     Number       Type             X           Y           Z
 ---------------------------------------------------------------------
      1          6           0       -0.942979    0.110042    2.353537
      2          1           0       -1.955254   -1.810606    2.426277
      3          6           0       -0.180275    0.972453    1.595413
      4          6           0        0.942979   -0.110042   -2.353537
      5          6           0       -0.207989   -0.631167   -0.270002
      6          6           0        0.207989    0.631167    0.270002
      7          1           0       -0.135911   -1.930266   -2.003343
      8          1           0        1.232581   -0.383902   -3.364830
      9          1           0        1.308800    2.455159   -0.127544
     10          6           0       -0.994329   -1.498197    0.538585
     11          1           0       -1.308800   -2.455159    0.127544
     12          1           0       -1.232581    0.383902    3.364830
     13          6           0        0.994329    1.498197   -0.538585
     14          1           0        0.135911    1.930266    2.003343
     15          6           0       -1.354173   -1.138108    1.819672
     16          6           0        1.354173    1.138108   -1.819672
     17          1           0        1.955254    1.810606   -2.426277
     18          6           0        0.180275   -0.972453   -1.595413
 ---------------------------------------------------------------------

 SCF Done:  E(RB3LYP) =  -385.906905160     A.U. after    1 cycles

 The electronic state is 1-AG.
 Alpha  occ. eigenvalues --  -10.20682 -10.20640 -10.19994 -10.19994 -10.19965
 Alpha  occ. eigenvalues --  -10.19964 -10.19918 -10.19916 -10.19901 -10.19900
 Alpha  occ. eigenvalues --   -0.87880  -0.82607  -0.77891  -0.74646  -0.72475
 Alpha  occ. eigenvalues --   -0.63144  -0.61688  -0.60163  -0.51989  -0.51706
 Alpha  occ. eigenvalues --   -0.49887  -0.45476  -0.44610  -0.42403  -0.42192
 Alpha  occ. eigenvalues --   -0.40710  -0.39516  -0.37585  -0.34538  -0.33759
 Alpha  occ. eigenvalues --   -0.33270  -0.29140  -0.25073  -0.22311
 Alpha virt. eigenvalues --   -0.04883  -0.02076   0.00545   0.00863   0.01461
 Alpha virt. eigenvalues --    0.01490   0.03676   0.03717   0.05706   0.05929
 Alpha virt. eigenvalues --    0.05929   0.06038   0.06936   0.07833   0.08283

 Mulliken charges:
               1
     1  C   -0.352987
     2  H    0.180194
     3  C    0.123764
     4  C   -0.352987
     5  C   -0.265735
     6  C   -0.265735
     7  H    0.181924
     8  H    0.180202
     9  H    0.181918
    10  C    0.123713
    11  H    0.181918
    12  H    0.180202
    13  C    0.123713
    14  H    0.181924
    15  C   -0.352994
    16  C   -0.352994
    17  H    0.180194
    18  C    0.123764
 Sum of Mulliken charges =  -0.00000

 Dipole moment (field-independent basis, Debye):
    X=              0.0000    Y=             -0.0000    Z=             -0.0000  Tot=              0.0000
 Quadrupole moment (field-independent basis, Debye-Ang):
   XX=            -60.9126   YY=            -54.4902   ZZ=            -53.6715
   XY=              4.4771   XZ=             -3.7738   YZ=              1.8650

  Exact polarizability:  89.969  25.680 111.965 -36.437   0.418 147.703
 Approx polarizability: 142.350  48.875 190.433 -63.139   5.106 245.433

                      1                      2                      3
                     AU                     AU                     AU
 Frequencies --    175.1384               186.9766               363.8050
 Red. masses --      4.1641                 3.4268                 3.8457
 Frc consts  --      0.0753                 0.0706                 0.2999
 IR Inten    --      2.9173                 0.0000                 1.5809

                      4                      5                      6
                     AG                     AG                     AU
 Frequencies --    397.0919               482.2390               488.8436
 Red. masses --      3.1453                 3.2937                 2.4912
 Frc consts  --      0.2922                 0.4513                 0.3507
 IR Inten    --      0.0000                 0.0000                23.5030

                      7                      8                      9
                     AG                     AG                     AU
 Frequencies --    517.0783               519.1084               633.1040
 Red. masses --      7.0917                 6.6172                 3.3911
 Frc consts  --      1.1171                 1.0506                 0.8008
 IR Inten    --      0.0000                 0.0000                 0.0007

                     10                     11                     12
                     AU                     AG                     AG
 Frequencies --    634.3981               729.1145               773.4943
 Red. masses --      6.4527                 1.1461                 4.5960
 Frc consts  --      1.5301                 0.3590                 1.6201
 IR Inten    --      3.2966                 0.0000                 0.0000

                     13                     14                     15
                     AG                     AU                     AU
 Frequencies --    781.9648               800.6990               806.8103
 Red. masses --      3.0435                 1.3596                 5.3911
 Frc consts  --      1.0965                 0.5136                 2.0676
 IR Inten    --      0.0000               129.8714                 0.2151

                     16                     17                     18
                     AU                     AG                     AG
 Frequencies --    848.4559               897.7407               948.5018
 Red. masses --      1.2654                 1.7326                 5.1629
 Frc consts  --      0.5367                 0.8227                 2.7367
 IR Inten    --      0.0009                 0.0000                 0.0000

                     19                     20                     21
                     AG                     AU                     AU
 Frequencies --    954.9426               975.5092               992.1394
 Red. masses --      1.3126                 1.3950                 1.2918
 Frc consts  --      0.7053                 0.7821                 0.7492
 IR Inten    --      0.0000                 4.3999                 0.0002

                     22                     23                     24
                     AG                     AU                     AG
 Frequencies --    999.4850              1039.8189              1051.5024
 Red. masses --      1.3044                 2.6751                 2.1513
 Frc consts  --      0.7678                 1.7041                 1.4014
 IR Inten    --      0.0000                 8.7124                 0.0000

                     25                     26                     27
                     AU                     AG                     AU
 Frequencies --   1154.0600              1177.1700              1181.3837
 Red. masses --      1.7623                 1.2916                 1.2325
 Frc consts  --      1.3829                 1.0545                 1.0135
 IR Inten    --      5.1966                 0.0000                 0.7821

                     28                     29                     30
                     AG                     AU                     AG
 Frequencies --   1192.0308              1238.8062              1275.0949
 Red. masses --      1.0778                 2.0548                 1.5865
 Frc consts  --      0.9023                 1.8579                 1.5198
 IR Inten    --      0.0000                 0.7490                 0.0000

                     31                     32                     33
                     AU                     AU                     AG
 Frequencies --   1294.3525              1405.4562              1412.3134
 Red. masses --      1.8026                 3.6392                 8.6054
 Frc consts  --      1.7793                 4.2354                10.1131
 IR Inten    --      7.9536                 0.5739                 0.0000

                     34                     35                     36
                     AU                     AG                     AG
 Frequencies --   1426.2837              1498.4658              1502.5061
 Red. masses --      1.5778                 2.3416                 1.8904
 Frc consts  --      1.8911                 3.0978                 2.5145
 IR Inten    --      3.1690                 0.0000                 0.0000

                     37                     38                     39
                     AU                     AG                     AU
 Frequencies --   1558.9954              1622.3179              1648.0121
 Red. masses --      3.1922                 6.7582                 4.8169
 Frc consts  --      4.5712                10.4798                 7.7079
 IR Inten    --      6.9950                 0.0000                 2.6847

                     40                     41                     42
                     AG                     AG                     AU
 Frequencies --   1678.6519              3172.4867              3174.3720
 Red. masses --      5.9606                 1.0858                 1.0858
 Frc consts  --      9.8961                 6.4389                 6.4462
 IR Inten    --      0.0000                 0.0000                 9.4996

                     43                     44                     45
                     AU                     AG                     AG
 Frequencies --   3176.2341              3179.6852              3191.1623
 Red. masses --      1.0885                 1.0879                 1.0930
 Frc consts  --      6.4700                 6.4803                 6.5581
 IR Inten    --      1.1068                 0.0000                 0.0000

                     46                     47                     48
                     AU                     AU                     AG
 Frequencies --   3192.3060              3204.1881              3205.2684
 Red. masses --      1.0931                 1.0970                 1.0966
 Frc consts  --      6.5632                 6.6358                 6.6380
 IR Inten    --     68.8117                55.0712                 0.0000

 - Thermochemistry -
 -------------------
 Temperature   298.150 Kelvin.  Pressure   1.00000 Atm.
 Atom     1 has atomic number  6 and mass  12.00000

 Molecular mass:   128.06260 amu.
 Principal axes and moments of inertia in atomic units:
                           1         2         3
     Eigenvalues --   579.927851470.734242050.66209
           X           -0.47136   0.28993   0.83292
           Y           -0.21095   0.87994  -0.42568
           Z            0.85634   0.37635   0.35361
 This molecule is an asymmetric top.
 Rotational symmetry number  1.
 Warning -- assumption of classical behavior for rotation
           may cause significant error
 Rotational temperatures (Kelvin)      0.14935     0.05889     0.04224
 Rotational constants (GHZ):           3.11201     1.22710     0.88008
 Zero-point vibrational energy     387348.2 (Joules/Mol)
                                   92.57845 (Kcal/Mol)
 Warning -- explicit consideration of   8 degrees of freedom as
           vibrations may cause significant error
 Vibrational temperatures:    251.99   269.02   523.43   571.33   693.83
          (Kelvin)            703.34   743.96   746.88   910.90   912.76
                             1049.03  1112.89  1125.07  1152.03  1160.82
                             1220.74  1291.65  1364.68  1373.95  1403.54
                             1427.47  1438.04  1496.07  1512.88  1660.43
                             1693.69  1699.75  1715.07  1782.37  1834.58
                             1862.28  2022.14  2032.00  2052.10  2155.96
                             2161.77  2243.05  2334.15  2371.12  2415.21
                             4564.50  4567.21  4569.89  4574.86  4591.37
                             4593.02  4610.11  4611.67

 Zero-point correction=                           0.147533 (Hartree/Particle)
 Thermal correction to Energy=                    0.154350
 Thermal correction to Enthalpy=                  0.155294
 Thermal correction to Gibbs Free Energy=         0.116318
 Sum of electronic and zero-point Energies=           -385.759372
 Sum of electronic and thermal Energies=              -385.752555
 Sum of electronic and thermal Enthalpies=            -385.751611
 Sum of electronic and thermal Free Energies=         -385.790587

                     E (Thermal)             CV                S
                      KCal/Mol        Cal/Mol-Kelvin    Cal/Mol-Kelvin
 Total                   96.856             28.856             82.032
 Electronic               0.000              0.000              0.000
 Translational            0.889              2.981             40.455
 Rotational               0.889              2.981             28.949
 Vibrational             95.079             22.895             12.627
 Vibration     1          0.627              1.873              2.380
 Vibration     2          0.632              1.858              2.258
 Vibration     3          0.737              1.547              1.106
 Vibration     4          0.764              1.476              0.973
 Vibration     5          0.838              1.289              0.704
 Vibration     6          0.845              1.275              0.687
 Vibration     7          0.872              1.212              0.617
 Vibration     8          0.874              1.208              0.612

 Optimization completed.
    -- Stationary point found.
 Normal termination of Gaussian 16 at Tue Oct  3 11:10:03 2023.
