 Gaussian 16, Revision B.01,
 Gaussian 16:  ES64L-G16RevB.01 20-Dec-2017

 -----------------
 # b3lyp/6-31+g(d)
 -----------------

 -----
 title
 -----
 Symbolic Z-matrix:
 Charge =  0 Multiplicity = 1

                         Standard orientation:
 ---------------------------------------------------------------------
 Center     Atomic      Atomic             Coordinates (Angstroms)
 Number     Number       Type             X           Y           Z
 ---------------------------------------------------------------------
      1          6           0       -0.964272    0.091779    2.381653
      2          1           0       -1.971861   -1.817752    2.456610
      3          6           0       -0.183423    0.970953    1.600934
      4          6           0        0.964272   -0.091779   -2.381653
      5          6           0       -0.210695   -0.639378   -0.273525
      6          6           0        0.210695    0.639378    0.273525
      7          1           0       -0.132034   -1.930252   -2.012877
      8          1           0        1.249415   -0.376075   -3.394937
      9          1           0        1.314275    2.459472   -0.135150
     10          6           0       -0.997342   -1.499497    0.544246
     11          1           0       -1.314275   -2.459472    0.135150
     12          1           0       -1.249415    0.376075    3.394937
     13          6           0        0.997342    1.499497   -0.544246
     14          1           0        0.132034    1.930252    2.012877
     15          6           0       -1.368724   -1.135918    1.856505
     16          6           0        1.368724    1.135918   -1.856505
     17          1           0        1.971861    1.817752   -2.456610
     18          6           0        0.183423   -0.970953   -1.600934
 ---------------------------------------------------------------------

 SCF Done:  E(RB3LYP) =  -385.902586488     A.U. after   11 cycles

 The electronic state is 1-AG.
 Alpha  occ. eigenvalues --  -10.21038 -10.21001 -10.20405 -10.20403 -10.20402
 Alpha  occ. eigenvalues --  -10.20401 -10.20314 -10.20314 -10.20261 -10.20261
 Alpha  occ. eigenvalues --   -0.87426  -0.82310  -0.77462  -0.74970  -0.71695
 Alpha  occ. eigenvalues --   -0.63662  -0.61291  -0.59909  -0.51914  -0.51697
 Alpha  occ. eigenvalues --   -0.49802  -0.45382  -0.44625  -0.42327  -0.42039
 Alpha  occ. eigenvalues --   -0.40286  -0.39204  -0.38108  -0.34560  -0.33773
 Alpha  occ. eigenvalues --   -0.33140  -0.28873  -0.25430  -0.21713
 Alpha virt. eigenvalues --   -0.05751  -0.02065   0.00533   0.00716   0.01444
 Alpha virt. eigenvalues --    0.01480   0.03628   0.03672   0.05621   0.05966
 Alpha virt. eigenvalues --    0.05980   0.06004   0.07015   0.07392   0.08219

 Mulliken charges:
               1
     1  C   -0.319423
     2  H    0.182343
     3  C    0.136809
     4  C   -0.319423
     5  C   -0.362949
     6  C   -0.362949
     7  H    0.181773
     8  H    0.182352
     9  H    0.181768
    10  C    0.136780
    11  H    0.181768
    12  H    0.182352
    13  C    0.136780
    14  H    0.181773
    15  C   -0.319452
    16  C   -0.319452
    17  H    0.182343
    18  C    0.136809
 Sum of Mulliken charges =  -0.00000

 Dipole moment (field-independent basis, Debye):
    X=              0.0000    Y=              0.0000    Z=              0.0000  Tot=              0.0000
 Quadrupole moment (field-independent basis, Debye-Ang):
   XX=            -61.0731   YY=            -54.6824   ZZ=            -53.4303
   XY=              4.5940   XZ=             -4.0675   YZ=              1.7770

 Normal termination of Gaussian 16 at Tue Oct  3 11:13:18 2023.
