 Gaussian 16, Revision B.01,
 Gaussian 16:  ES64L-G16RevB.01 20-Dec-2017

 ----------------
 # ub3lyp/6-31+G*
 ----------------

 -----
 title
 -----
 Symbolic Z-matrix:
 Charge = -1 Multiplicity = 2

                         Standard orientation:
 ---------------------------------------------------------------------
 Center     Atomic      Atomic             Coordinates (Angstroms)
 Number     Number       Type             X           Y           Z
 ---------------------------------------------------------------------
      1          6           0       -0.942979    0.110042    2.353537
      2          1           0       -1.955254   -1.810606    2.426277
      3          6           0       -0.180275    0.972453    1.595413
      4          6           0        0.942979   -0.110042   -2.353537
      5          6           0       -0.207989   -0.631167   -0.270002
      6          6           0        0.207989    0.631167    0.270002
      7          1           0       -0.135911   -1.930266   -2.003343
      8          1           0        1.232581   -0.383902   -3.364830
      9          1           0        1.308800    2.455159   -0.127544
     10          6           0       -0.994329   -1.498197    0.538585
     11          1           0       -1.308800   -2.455159    0.127544
     12          1           0       -1.232581    0.383902    3.364830
     13          6           0        0.994329    1.498197   -0.538585
     14          1           0        0.135911    1.930266    2.003343
     15          6           0       -1.354173   -1.138108    1.819672
     16          6           0        1.354173    1.138108   -1.819672
     17          1           0        1.955254    1.810606   -2.426277
     18          6           0        0.180275   -0.972453   -1.595413
 ---------------------------------------------------------------------

 SCF Done:  E(UB3LYP) =  -385.893038218     A.U. after   15 cycles

 The electronic state is 2-AG.
 Alpha  occ. eigenvalues --  -10.03082 -10.03040 -10.02280 -10.02280 -10.02232
 Alpha  occ. eigenvalues --  -10.02232 -10.01054 -10.01054 -10.01053 -10.01052
 Alpha  occ. eigenvalues --   -0.70071  -0.64974  -0.60194  -0.57123  -0.54998
 Alpha  occ. eigenvalues --   -0.45880  -0.44221  -0.42804  -0.34763  -0.34745
 Alpha  occ. eigenvalues --   -0.32585  -0.28274  -0.27189  -0.24979  -0.24519
 Alpha  occ. eigenvalues --   -0.23778  -0.22343  -0.20385  -0.17105  -0.16549
 Alpha  occ. eigenvalues --   -0.16481  -0.12302  -0.08292  -0.05890   0.07532
 Alpha virt. eigenvalues --    0.12382   0.12874   0.12916   0.14597   0.14667
 Alpha virt. eigenvalues --    0.14890   0.15551   0.16543   0.17135   0.18726
 Alpha virt. eigenvalues --    0.18953   0.20262   0.20344   0.21206   0.21429

  Beta  occ. eigenvalues --  -10.03167 -10.03125 -10.02214 -10.02214 -10.02168
  Beta  occ. eigenvalues --  -10.02168 -10.00727 -10.00727 -10.00726 -10.00725
  Beta  occ. eigenvalues --   -0.69736  -0.64512  -0.59587  -0.56889  -0.54409
  Beta  occ. eigenvalues --   -0.45159  -0.44118  -0.42389  -0.34531  -0.34352
  Beta  occ. eigenvalues --   -0.32427  -0.28068  -0.27076  -0.24769  -0.24341
  Beta  occ. eigenvalues --   -0.23625  -0.21439  -0.20201  -0.16909  -0.16389
  Beta  occ. eigenvalues --   -0.15225  -0.10651  -0.07555  -0.03809
  Beta virt. eigenvalues --    0.12338   0.12812   0.12899   0.13320   0.14606
  Beta virt. eigenvalues --    0.14685   0.14845   0.16235   0.16466   0.17114
  Beta virt. eigenvalues --    0.19061   0.19392   0.20317   0.20558   0.21202

 Mulliken charges and spin densities:
               1          2
     1  C   -0.425460   0.075905
     2  H    0.123418  -0.004678
     3  C    0.022848   0.267868
     4  C   -0.425460   0.075905
     5  C   -0.195307  -0.149882
     6  C   -0.195307  -0.149882
     7  H    0.126906  -0.014195
     8  H    0.123425  -0.004675
     9  H    0.126904  -0.014195
    10  C    0.022779   0.267867
    11  H    0.126904  -0.014195
    12  H    0.123425  -0.004675
    13  C    0.022779   0.267867
    14  H    0.126906  -0.014195
    15  C   -0.425513   0.075985
    16  C   -0.425513   0.075985
    17  H    0.123418  -0.004678
    18  C    0.022848   0.267868
 Sum of Mulliken charges =  -1.00000   1.00000

 Dipole moment (field-independent basis, Debye):
    X=              0.0000    Y=             -0.0000    Z=             -0.0000  Tot=              0.0000
 Quadrupole moment (field-independent basis, Debye-Ang):
   XX=            -74.1216   YY=            -69.4589   ZZ=            -79.2563
   XY=             -0.0129   XZ=              4.6804   YZ=              3.2384

 Normal termination of Gaussian 16 at Tue Oct  3 11:10:39 2023.
