 Gaussian 16, Revision B.01,
 Gaussian 16:  ES64L-G16RevB.01 20-Dec-2017

 ---------------------------
 # opt freq ub3lyp/6-31+g(d)
 ---------------------------

 -----
 title
 -----
 Symbolic Z-matrix:
 Charge = -1 Multiplicity = 2

 SCF Done:  E(UB3LYP) =  -385.794193128     A.U. after   20 cycles
 SCF Done:  E(UB3LYP) =  -385.868620804     A.U. after   18 cycles
 SCF Done:  E(UB3LYP) =  -385.897009299     A.U. after   18 cycles
 SCF Done:  E(UB3LYP) =  -385.897319881     A.U. after   16 cycles
 SCF Done:  E(UB3LYP) =  -385.897340231     A.U. after   15 cycles
 SCF Done:  E(UB3LYP) =  -385.897342366     A.U. after   15 cycles
 Optimization completed.
    -- Stationary point found.

 1\1\GINC-HPCS07\FOpt\UB3LYP\6-31+G(d)\C10H8(1-,2)\WANG\03-Oct-2023\0\\
 # opt freq ub3lyp/6-31+g(d)\\title\\-1,2\C,-2.9887719895,-1.3964705631
 ,2.3816532675\H,-3.9963605122,-3.3060020247,2.4566103913\C,-2.20792265
 1,-0.5172972682,1.6009340864\C,-1.0602280105,-1.5800294369,-2.38165326
 75\C,-2.2351953616,-2.1276284609,-0.2735247679\C,-1.8138046384,-0.8488
 715391,0.2735247679\H,-2.1565340914,-3.4185023954,-2.0128766379\H,-0.7
 750848626,-1.8643254135,-3.3949366598\H,-0.7102246369,0.9712219205,-0.
 1351503972\C,-3.0218417487,-2.9877470223,0.5442462567\H,-3.3387753631,

 Normal termination of Gaussian 16 at Tue Oct  3 11:09:31 2023.

 ---------------------------------------------------------------------
 #N Geom=AllCheck Guess=TCheck SCRF=Check GenChk UB3LYP/6-31+G(d) Freq
 ---------------------------------------------------------------------

 Structure from the checkpoint file:  "/scr/Gau-9905.chk"
 -----
 title
 -----
 Charge = -1 Multiplicity = 2

                         Standard orientation:
 ---------------------------------------------------------------------
 Center     Atomic      Atomic             Coordinates (Angstroms)
 Number     Number       Type             X           Y           Z
 ---------------------------------------------------------------------
      1          6           0       -0.964272    0.091779    2.381653
      2          1           0       -1.971861   -1.817752    2.456610
      3          6           0       -0.183423    0.970953    1.600934
      4          6           0        0.964272   -0.091779   -2.381653
      5          6           0       -0.210695   -0.639378   -0.273525
      6          6           0        0.210695    0.639378    0.273525
      7          1           0       -0.132034   -1.930252   -2.012877
      8          1           0        1.249415   -0.376075   -3.394937
      9          1           0        1.314275    2.459472   -0.135150
     10          6           0       -0.997342   -1.499497    0.544246
     11          1           0       -1.314275   -2.459472    0.135150
     12          1           0       -1.249415    0.376075    3.394937
     13          6           0        0.997342    1.499497   -0.544246
     14          1           0        0.132034    1.930252    2.012877
     15          6           0       -1.368724   -1.135918    1.856505
     16          6           0        1.368724    1.135918   -1.856505
     17          1           0        1.971861    1.817752   -2.456610
     18          6           0        0.183423   -0.970953   -1.600934
 ---------------------------------------------------------------------

 SCF Done:  E(UB3LYP) =  -385.897342366     A.U. after    1 cycles

 The electronic state is 2-AG.
 Alpha  occ. eigenvalues --  -10.03399 -10.03362 -10.02611 -10.02611 -10.02554
 Alpha  occ. eigenvalues --  -10.02554 -10.01465 -10.01465 -10.01464 -10.01463
 Alpha  occ. eigenvalues --   -0.69591  -0.64683  -0.59729  -0.57437  -0.54215
 Alpha  occ. eigenvalues --   -0.46364  -0.43852  -0.42523  -0.34977  -0.34461
 Alpha  occ. eigenvalues --   -0.32511  -0.28179  -0.27206  -0.24663  -0.24559
 Alpha  occ. eigenvalues --   -0.23311  -0.22025  -0.20867  -0.17133  -0.16446
 Alpha  occ. eigenvalues --   -0.16436  -0.12036  -0.08660  -0.05357   0.06688
 Alpha virt. eigenvalues --    0.12354   0.12820   0.12936   0.14576   0.14660
 Alpha virt. eigenvalues --    0.14837   0.15490   0.16456   0.17065   0.18841
 Alpha virt. eigenvalues --    0.19076   0.20265   0.20312   0.21161   0.21185

  Beta  occ. eigenvalues --  -10.03491 -10.03454 -10.02547 -10.02547 -10.02492
  Beta  occ. eigenvalues --  -10.02492 -10.01125 -10.01124 -10.01124 -10.01123
  Beta  occ. eigenvalues --   -0.69246  -0.64214  -0.59100  -0.57196  -0.53589
  Beta  occ. eigenvalues --   -0.45613  -0.43758  -0.42107  -0.34569  -0.34248
  Beta  occ. eigenvalues --   -0.32363  -0.27971  -0.27091  -0.24496  -0.24338
  Beta  occ. eigenvalues --   -0.23151  -0.21098  -0.20675  -0.16943  -0.16358
  Beta  occ. eigenvalues --   -0.15121  -0.10322  -0.07920  -0.03146
  Beta virt. eigenvalues --    0.12319   0.12620   0.12770   0.12928   0.14614
  Beta virt. eigenvalues --    0.14617   0.14806   0.16190   0.16396   0.17053
  Beta virt. eigenvalues --    0.19197   0.19487   0.20371   0.20437   0.21168

 Mulliken charges and spin densities:
               1          2
     1  C   -0.378530   0.060675
     2  H    0.124724  -0.004323
     3  C    0.016693   0.286133
     4  C   -0.378530   0.060675
     5  C   -0.278594  -0.155686
     6  C   -0.278594  -0.155686
     7  H    0.126423  -0.014599
     8  H    0.124730  -0.004330
     9  H    0.126423  -0.014600
    10  C    0.016626   0.286201
    11  H    0.126423  -0.014600
    12  H    0.124730  -0.004330
    13  C    0.016626   0.286201
    14  H    0.126423  -0.014599
    15  C   -0.378495   0.060529
    16  C   -0.378495   0.060529
    17  H    0.124724  -0.004323
    18  C    0.016693   0.286133
 Sum of Mulliken charges =  -1.00000   1.00000

 Dipole moment (field-independent basis, Debye):
    X=              0.0000    Y=             -0.0000    Z=             -0.0000  Tot=              0.0000
 Quadrupole moment (field-independent basis, Debye-Ang):
   XX=            -74.1124   YY=            -69.7296   ZZ=            -78.8274
   XY=              0.0251   XZ=              4.3198   YZ=              3.0241

  Exact polarizability: 126.089  30.626 140.970 -54.762  -7.347 207.297
 Approx polarizability: 189.858  57.384 230.707 -89.732  -4.821 327.982

                      1                      2                      3
                     AU                     AU                     AG
 Frequencies --    161.9674               173.7123               278.9639
 Red. masses --      3.6602                 4.0958                 3.8581
 Frc consts  --      0.0566                 0.0728                 0.1769
 IR Inten    --      0.0001                 5.1606                 0.0000

                      4                      5                      6
                     AU                     AU                     AG
 Frequencies --    364.1221               465.7410               509.9255
 Red. masses --      3.8489                 2.2980                 6.7076
 Frc consts  --      0.3007                 0.2937                 1.0276
 IR Inten    --      5.7426                34.0097                 0.0000

                      7                      8                      9
                     AG                     AG                     AU
 Frequencies --    510.2189               516.2311               585.2295
 Red. masses --      6.9534                 3.8988                 4.1960
 Frc consts  --      1.0665                 0.6122                 0.8467
 IR Inten    --      0.0000                 0.0000                 0.0000

                     10                     11                     12
                     AU                     AG                     AU
 Frequencies --    608.1120               640.3375               697.4785
 Red. masses --      6.3520                 1.1116                 1.2240
 Frc consts  --      1.3840                 0.2686                 0.3508
 IR Inten    --     16.7108                 0.0000                 0.0213

                     13                     14                     15
                     AU                     AG                     AG
 Frequencies --    707.1240               723.5693               750.0420
 Red. masses --      1.3271                 1.5471                 4.6380
 Frc consts  --      0.3910                 0.4772                 1.5373
 IR Inten    --    210.1333                 0.0000                 0.0000

                     16                     17                     18
                     AG                     AU                     AU
 Frequencies --    750.1995               781.3380               795.4462
 Red. masses --      1.2612                 1.5126                 4.9233
 Frc consts  --      0.4182                 0.5441                 1.8354
 IR Inten    --      0.0000                16.3642                 7.6286

                     19                     20                     21
                     AG                     AU                     AG
 Frequencies --    806.3277               866.0678               877.3157
 Red. masses --      4.1714                 1.2157                 1.2010
 Frc consts  --      1.5979                 0.5373                 0.5446
 IR Inten    --      0.0000                 0.0002                 0.0000

                     22                     23                     24
                     AG                     AU                     AG
 Frequencies --    893.5803              1023.0192              1056.2448
 Red. masses --      4.6288                 3.2311                 2.0253
 Frc consts  --      2.1776                 1.9924                 1.3313
 IR Inten    --      0.0000               164.7036                 0.0000

                     25                     26                     27
                     AG                     AU                     AU
 Frequencies --   1069.5326              1109.7339              1162.1480
 Red. masses --      1.8158                 1.8401                 1.1914
 Frc consts  --      1.2238                 1.3351                 0.9480
 IR Inten    --      0.0000                25.8661                12.9714

                     28                     29                     30
                     AG                     AU                     AG
 Frequencies --   1166.3461              1214.3977              1225.0965
 Red. masses --      1.0831                 1.6566                 2.2843
 Frc consts  --      0.8681                 1.4394                 2.0199
 IR Inten    --      0.0000               187.5254                 0.0000

                     31                     32                     33
                     AU                     AG                     AU
 Frequencies --   1269.9873              1376.8080              1402.5139
 Red. masses --      2.1129                10.4802                 1.5648
 Frc consts  --      2.0078                11.7049                 1.8135
 IR Inten    --     11.1165                 0.0000                 0.8726

                     34                     35                     36
                     AU                     AG                     AG
 Frequencies --   1410.2374              1413.3185              1448.0141
 Red. masses --      6.2948                 2.2427                 1.8789
 Frc consts  --      7.3759                 2.6394                 2.3211
 IR Inten    --     74.7892                 0.0000                 0.0000

                     37                     38                     39
                     AG                     AU                     AU
 Frequencies --   1479.8245              1528.6307              1539.0041
 Red. masses --      1.9231                 2.9253                 3.5224
 Frc consts  --      2.4813                 4.0274                 4.9155
 IR Inten    --      0.0000               132.0068                24.1574

                     40                     41                     42
                     AG                     AG                     AU
 Frequencies --   1594.3917              3115.4706              3118.6143
 Red. masses --      6.4336                 1.0797                 1.0814
 Frc consts  --      9.6359                 6.1745                 6.1969
 IR Inten    --      0.0000                 0.0000                 5.6060

                     43                     44                     45
                     AU                     AG                     AG
 Frequencies --   3123.0620              3129.2852              3136.9596
 Red. masses --      1.0844                 1.0853                 1.0895
 Frc consts  --      6.2318                 6.2618                 6.3167
 IR Inten    --     53.8449                 0.0000                 0.0000

                     46                     47                     48
                     AU                     AU                     AG
 Frequencies --   3140.8786              3155.1974              3159.0470
 Red. masses --      1.0897                 1.0961                 1.0953
 Frc consts  --      6.3335                 6.4293                 6.4404
 IR Inten    --    277.2483               181.1657                 0.0000

 - Thermochemistry -
 -------------------
 Temperature   298.150 Kelvin.  Pressure   1.00000 Atm.
 Atom     1 has atomic number  6 and mass  12.00000

 Molecular mass:   128.06260 amu.
 Principal axes and moments of inertia in atomic units:
                           1         2         3
     Eigenvalues --   578.382711509.301492087.68420
           X           -0.47138   0.28991   0.83292
           Y           -0.21097   0.87994  -0.42567
           Z            0.85633   0.37637   0.35362
 This molecule is an asymmetric top.
 Rotational symmetry number  1.
 Warning -- assumption of classical behavior for rotation
           may cause significant error
 Rotational temperatures (Kelvin)      0.14975     0.05739     0.04149
 Rotational constants (GHZ):           3.12032     1.19575     0.86447
 Zero-point vibrational energy     371026.7 (Joules/Mol)
                                   88.67750 (Kcal/Mol)
 Warning -- explicit consideration of  10 degrees of freedom as
           vibrations may cause significant error
 Vibrational temperatures:    233.04   249.93   401.37   523.89   670.10
          (Kelvin)            733.67   734.09   742.74   842.01   874.94
                              921.30  1003.52  1017.39  1041.05  1079.14
                             1079.37  1124.17  1144.47  1160.13  1246.08
                             1262.26  1285.66  1471.90  1519.70  1538.82
                             1596.66  1672.07  1678.11  1747.25  1762.64
                             1827.23  1980.92  2017.90  2029.02  2033.45
                             2083.37  2129.14  2199.36  2214.28  2293.97
                             4482.47  4486.99  4493.39  4502.34  4513.39
                             4519.02  4539.63  4545.16

 Zero-point correction=                           0.141317 (Hartree/Particle)
 Thermal correction to Energy=                    0.148709
 Thermal correction to Enthalpy=                  0.149653
 Thermal correction to Gibbs Free Energy=         0.109066
 Sum of electronic and zero-point Energies=           -385.756026
 Sum of electronic and thermal Energies=              -385.748633
 Sum of electronic and thermal Enthalpies=            -385.747689
 Sum of electronic and thermal Free Energies=         -385.788277

                     E (Thermal)             CV                S
                      KCal/Mol        Cal/Mol-Kelvin    Cal/Mol-Kelvin
 Total                   93.316             31.520             85.424
 Electronic               0.000              0.000              1.377
 Translational            0.889              2.981             40.455
 Rotational               0.889              2.981             28.990
 Vibrational             91.539             25.559             14.601
 Vibration     1          0.622              1.889              2.527
 Vibration     2          0.627              1.875              2.395
 Vibration     3          0.679              1.712              1.540
 Vibration     4          0.738              1.546              1.104
 Vibration     5          0.823              1.326              0.750
 Vibration     6          0.865              1.228              0.634
 Vibration     7          0.865              1.227              0.633
 Vibration     8          0.871              1.214              0.619
 Vibration     9          0.942              1.063              0.476
 Vibration    10          0.967              1.015              0.436

 Optimization completed.
    -- Stationary point found.

 1\1\GINC-HPCS07\Freq\UB3LYP\6-31+G(d)\C10H8(1-,2)\WANG\03-Oct-2023\0\\
 #N Geom=AllCheck Guess=TCheck SCRF=Check GenChk UB3LYP/6-31+G(d) Freq\
 \title\\-1,2\C,-2.9887719895,-1.3964705631,2.3816532675\H,-3.996360512
 2,-3.3060020247,2.4566103913\C,-2.207922651,-0.5172972682,1.6009340864
 \C,-1.0602280105,-1.5800294369,-2.3816532675\C,-2.2351953616,-2.127628
 4609,-0.2735247679\C,-1.8138046384,-0.8488715391,0.2735247679\H,-2.156
 5340914,-3.4185023954,-2.0128766379\H,-0.7750848626,-1.8643254135,-3.3
 949366598\H,-0.7102246369,0.9712219205,-0.1351503972\C,-3.0218417487,-

 Normal termination of Gaussian 16 at Tue Oct  3 11:10:30 2023.
