 Gaussian 16, Revision B.01,
 Gaussian 16:  ES64L-G16RevB.01 20-Dec-2017

 -------------------------------------------------------------
 #p nmr=giao rb3lyp/6-31g(d) iop(10/33=2) int=nobasistransform
 -------------------------------------------------------------

 -------------------
 Title Card Required
 -------------------
 Symbolic Z-matrix:
 Charge =  0 Multiplicity = 1

                         Standard orientation:
 ---------------------------------------------------------------------
 Center     Atomic      Atomic             Coordinates (Angstroms)
 Number     Number       Type             X           Y           Z
 ---------------------------------------------------------------------
      1          6           0       -2.681223   -0.695936    0.000026
      2          1           0       -3.700245   -1.078860    0.000044
      3          6           0       -2.573890    0.695773    0.000118
      4          1           0       -3.514548    1.240878    0.000195
      5          6           0       -1.421876    1.476723    0.000117
      6          1           0       -1.579954    2.554847    0.000135
      7          6           0       -0.091255    1.075207    0.000022
      8          6           0        1.021543    1.920539   -0.000066
      9          1           0        0.986520    3.003032   -0.000113
     10          6           0        2.175110    1.126197   -0.000164
     11          1           0        3.192497    1.504996   -0.000257
     12          6           0        1.842302   -0.233664    0.000077
     13          6           0        0.436710   -0.323263   -0.000152
     14          6           0       -1.685544   -1.668846   -0.000093
     15          1           0       -2.032353   -2.699281   -0.000099
     16          6           0       -0.300280   -1.497213   -0.000180
     17          1           0        0.283921   -2.417073   -0.000201
     18          6           0        2.805710   -1.383036    0.000219
     19          1           0        2.681208   -2.021294    0.883616
     20          1           0        2.681231   -2.021450   -0.883065
     21          1           0        3.837881   -1.020675    0.000200
 ---------------------------------------------------------------------

 SCF Done:  E(RB3LYP) =  -425.155900109     A.U. after   15 cycles

      1  C    Isotropic =    60.2128   Anisotropy =   161.9435

      2  H    Isotropic =    24.5982   Anisotropy =     6.9368

      3  C    Isotropic =    75.3723   Anisotropy =   139.7897

      4  H    Isotropic =    25.2388   Anisotropy =     6.3112

      5  C    Isotropic =    60.2712   Anisotropy =   151.9011

      6  H    Isotropic =    24.1866   Anisotropy =     8.5715

      7  C    Isotropic =    58.4389   Anisotropy =   154.9852

      8  C    Isotropic =    81.4702   Anisotropy =   121.0491

      9  H    Isotropic =    25.1392   Anisotropy =     4.5216

     10  C    Isotropic =    58.1569   Anisotropy =   142.9061

     11  H    Isotropic =    24.6320   Anisotropy =     5.7177

     12  C    Isotropic =    71.8403   Anisotropy =   132.6282

     13  C    Isotropic =    61.1997   Anisotropy =   154.3451

     14  C    Isotropic =    76.1950   Anisotropy =   138.2214

     15  H    Isotropic =    25.1560   Anisotropy =     6.7978

     16  C    Isotropic =    62.5864   Anisotropy =   159.2390

     17  H    Isotropic =    24.0500   Anisotropy =    10.5505

     18  C    Isotropic =   175.6103   Anisotropy =    21.9092

     19  H    Isotropic =    29.5692   Anisotropy =     8.7742

     20  H    Isotropic =    29.5684   Anisotropy =     8.7740

     21  H    Isotropic =    29.8616   Anisotropy =     8.1316

 The electronic state is 1-A.
 Alpha  occ. eigenvalues --  -10.20379 -10.20373 -10.20291 -10.19294 -10.19286
 Alpha  occ. eigenvalues --  -10.18890 -10.18662 -10.17900 -10.17850 -10.17458
 Alpha  occ. eigenvalues --  -10.16704  -0.87103  -0.81960  -0.78480  -0.74046
 Alpha  occ. eigenvalues --   -0.72646  -0.67104  -0.64006  -0.60355  -0.54389
 Alpha  occ. eigenvalues --   -0.53255  -0.50629  -0.48129  -0.45174  -0.44551
 Alpha  occ. eigenvalues --   -0.41522  -0.40972  -0.39491  -0.38070  -0.37297
 Alpha  occ. eigenvalues --   -0.36680  -0.35943  -0.34453  -0.32429  -0.32192
 Alpha  occ. eigenvalues --   -0.29342  -0.22660  -0.18366
 Alpha virt. eigenvalues --   -0.06437  -0.03275   0.08141   0.08971   0.10869
 Alpha virt. eigenvalues --    0.12418   0.13405   0.14115   0.15194   0.16265
 Alpha virt. eigenvalues --    0.16385   0.18260   0.19519   0.20055   0.20317

 Mulliken charges:
               1
     1  C   -0.105496
     2  H    0.134358
     3  C   -0.147141
     4  H    0.130085
     5  C   -0.172497
     6  H    0.136192
     7  C    0.118000
     8  C   -0.200467
     9  H    0.120596
    10  C   -0.189661
    11  H    0.120775
    12  C    0.106580
    13  C    0.072858
    14  C   -0.143802
    15  H    0.129288
    16  C   -0.181624
    17  H    0.135600
    18  C   -0.531416
    19  H    0.156731
    20  H    0.156732
    21  H    0.154309
 Sum of Mulliken charges =  -0.00000

 Dipole moment (field-independent basis, Debye):
    X=             -0.6695    Y=             -0.5021    Z=              0.0000  Tot=              0.8369
 Quadrupole moment (field-independent basis, Debye-Ang):
   XX=            -56.9556   YY=            -57.8071   ZZ=            -68.4427
   XY=             -0.5325   XZ=             -0.0004   YZ=             -0.0000

 Normal termination of Gaussian 16 at Fri May 28 14:01:44 2021.
